
                                 *****************
                                 * O   R   C   A *
                                 *****************

                                            #,                                       
                                            ###                                      
                                            ####                                     
                                            #####                                    
                                            ######                                   
                                           ########,                                 
                                     ,,################,,,,,                         
                               ,,#################################,,                 
                          ,,##########################################,,             
                       ,#########################################, ''#####,          
                    ,#############################################,,   '####,        
                  ,##################################################,,,,####,       
                ,###########''''           ''''###############################       
              ,#####''   ,,,,##########,,,,          '''####'''          '####       
            ,##' ,,,,###########################,,,                        '##       
           ' ,,###''''                  '''############,,,                           
         ,,##''                                '''############,,,,        ,,,,,,###''
      ,#''                                            '''#######################'''  
     '                                                          ''''####''''         
             ,#######,   #######,   ,#######,      ##                                
            ,#'     '#,  ##    ##  ,#'     '#,    #''#        ######   ,####,        
            ##       ##  ##   ,#'  ##            #'  '#       #        #'  '#        
            ##       ##  #######   ##           ,######,      #####,   #    #        
            '#,     ,#'  ##    ##  '#,     ,#' ,#      #,         ##   #,  ,#        
             '#######'   ##     ##  '#######'  #'      '#     #####' # '####'        



                  #######################################################
                  #                        -***-                        #
                  #          Department of theory and spectroscopy      #
                  #    Directorship and core code : Frank Neese         #
                  #        Max Planck Institute fuer Kohlenforschung    #
                  #                Kaiser Wilhelm Platz 1               #
                  #                 D-45470 Muelheim/Ruhr               #
                  #                      Germany                        #
                  #                                                     #
                  #                  All rights reserved                #
                  #                        -***-                        #
                  #######################################################


                         Program Version 5.0.4 -  RELEASE  -


 With contributions from (in alphabetic order):
   Daniel Aravena         : Magnetic Suceptibility
   Michael Atanasov       : Ab Initio Ligand Field Theory (pilot matlab implementation)
   Alexander A. Auer      : GIAO ZORA, VPT2 properties, NMR spectrum
   Ute Becker             : Parallelization
   Giovanni Bistoni       : ED, misc. LED, open-shell LED, HFLD
   Martin Brehm           : Molecular dynamics
   Dmytro Bykov           : SCF Hessian
   Vijay G. Chilkuri      : MRCI spin determinant printing, contributions to CSF-ICE
   Dipayan Datta          : RHF DLPNO-CCSD density
   Achintya Kumar Dutta   : EOM-CC, STEOM-CC
   Dmitry Ganyushin       : Spin-Orbit,Spin-Spin,Magnetic field MRCI
   Miquel Garcia          : C-PCM and meta-GGA Hessian, CC/C-PCM, Gaussian charge scheme
   Yang Guo               : DLPNO-NEVPT2, F12-NEVPT2, CIM, IAO-localization
   Andreas Hansen         : Spin unrestricted coupled pair/coupled cluster methods
   Benjamin Helmich-Paris : MC-RPA, TRAH-SCF, COSX integrals
   Lee Huntington         : MR-EOM, pCC
   Robert Izsak           : Overlap fitted RIJCOSX, COSX-SCS-MP3, EOM
   Marcus Kettner         : VPT2
   Christian Kollmar      : KDIIS, OOCD, Brueckner-CCSD(T), CCSD density, CASPT2, CASPT2-K
   Simone Kossmann        : Meta GGA functionals, TD-DFT gradient, OOMP2, MP2 Hessian
   Martin Krupicka        : Initial AUTO-CI
   Lucas Lang             : DCDCAS
   Marvin Lechner         : AUTO-CI (C++ implementation), FIC-MRCC
   Dagmar Lenk            : GEPOL surface, SMD
   Dimitrios Liakos       : Extrapolation schemes; Compound Job, initial MDCI parallelization
   Dimitrios Manganas     : Further ROCIS development; embedding schemes
   Dimitrios Pantazis     : SARC Basis sets
   Anastasios Papadopoulos: AUTO-CI, single reference methods and gradients
   Taras Petrenko         : DFT Hessian,TD-DFT gradient, ASA, ECA, R-Raman, ABS, FL, XAS/XES, NRVS
   Peter Pinski           : DLPNO-MP2, DLPNO-MP2 Gradient
   Christoph Reimann      : Effective Core Potentials
   Marius Retegan         : Local ZFS, SOC
   Christoph Riplinger    : Optimizer, TS searches, QM/MM, DLPNO-CCSD(T), (RO)-DLPNO pert. Triples
   Tobias Risthaus        : Range-separated hybrids, TD-DFT gradient, RPA, STAB
   Michael Roemelt        : Original ROCIS implementation
   Masaaki Saitow         : Open-shell DLPNO-CCSD energy and density
   Barbara Sandhoefer     : DKH picture change effects
   Avijit Sen             : IP-ROCIS
   Kantharuban Sivalingam : CASSCF convergence, NEVPT2, FIC-MRCI
   Bernardo de Souza      : ESD, SOC TD-DFT
   Georgi Stoychev        : AutoAux, RI-MP2 NMR, DLPNO-MP2 response
   Willem Van den Heuvel  : Paramagnetic NMR
   Boris Wezisla          : Elementary symmetry handling
   Frank Wennmohs         : Technical directorship


 We gratefully acknowledge several colleagues who have allowed us to
 interface, adapt or use parts of their codes:
   Stefan Grimme, W. Hujo, H. Kruse, P. Pracht,  : VdW corrections, initial TS optimization,
                  C. Bannwarth, S. Ehlert          DFT functionals, gCP, sTDA/sTD-DF
   Ed Valeev, F. Pavosevic, A. Kumar             : LibInt (2-el integral package), F12 methods
   Garnet Chan, S. Sharma, J. Yang, R. Olivares  : DMRG
   Ulf Ekstrom                                   : XCFun DFT Library
   Mihaly Kallay                                 : mrcc  (arbitrary order and MRCC methods)
   Jiri Pittner, Ondrej Demel                    : Mk-CCSD
   Frank Weinhold                                : gennbo (NPA and NBO analysis)
   Christopher J. Cramer and Donald G. Truhlar   : smd solvation model
   Lars Goerigk                                  : TD-DFT with DH, B97 family of functionals
   V. Asgeirsson, H. Jonsson                     : NEB implementation
   FAccTs GmbH                                   : IRC, NEB, NEB-TS, DLPNO-Multilevel, CI-OPT
                                                   MM, QMMM, 2- and 3-layer-ONIOM, Crystal-QMMM,
                                                   LR-CPCM, SF, NACMEs, symmetry and pop. for TD-DFT,
                                                   nearIR, NL-DFT gradient (VV10), updates on ESD,
                                                   ML-optimized integration grids
   S Lehtola, MJT Oliveira, MAL Marques          : LibXC Library
   Liviu Ungur et al                             : ANISO software


 Your calculation uses the libint2 library for the computation of 2-el integrals
 For citations please refer to: http://libint.valeyev.net

 Your ORCA version has been built with support for libXC version: 5.1.0
 For citations please refer to: https://tddft.org/programs/libxc/

 This ORCA versions uses:
   CBLAS   interface :  Fast vector & matrix operations
   LAPACKE interface :  Fast linear algebra routines
   SCALAPACK package :  Parallel linear algebra routines
   Shared memory     :  Shared parallel matrices
   BLAS/LAPACK       :  OpenBLAS 0.3.15  USE64BITINT DYNAMIC_ARCH NO_AFFINITY Haswell SINGLE_THREADED
        Core in use  :  Haswell
   Copyright (c) 2011-2014, The OpenBLAS Project


================================================================================

----- Orbital basis set information -----
Your calculation utilizes the basis: def2-TZVP
   F. Weigend and R. Ahlrichs, Phys. Chem. Chem. Phys. 7, 3297 (2005).

----- AuxJ basis set information -----
Your calculation utilizes the auxiliary basis: def2/J
   F. Weigend, Phys. Chem. Chem. Phys. 8, 1057 (2006).

================================================================================
                                        WARNINGS
                       Please study these warnings very carefully!
================================================================================


WARNING: Geometry Optimization
  ===> : Switching off AutoStart
         For restart on a previous wavefunction, please use MOREAD

INFO   : the flag for use of the SHARK integral package has been found!

================================================================================
                                       INPUT FILE
================================================================================
NAME = h2co_bp86_def2-tzvp.inp
|  1> ! Opt BP86 Def2-TZVP Def2/J DefGrid2
|  2> ! TightSCF
|  3> ! LargePrint
|  4> 
|  5> * int 0 1
|  6>   C    0    0    0        0.0000    0.000    0.00
|  7>   O    1    0    0        1.2029    0.000    0.00
|  8>   H    1    2    0        1.1075  122.016    0.00
|  9>   H    1    2    3        1.1075  122.016  180.00
| 10> **                         ****END OF INPUT****
================================================================================

                       *****************************
                       * Geometry Optimization Run *
                       *****************************

Geometry optimization settings:
Update method            Update   .... BFGS
Choice of coordinates    CoordSys .... Z-matrix Internals
Initial Hessian          InHess   .... Almoef's Model

Convergence Tolerances:
Energy Change            TolE     ....  5.0000e-06 Eh
Max. Gradient            TolMAXG  ....  3.0000e-04 Eh/bohr
RMS Gradient             TolRMSG  ....  1.0000e-04 Eh/bohr
Max. Displacement        TolMAXD  ....  4.0000e-03 bohr
RMS Displacement         TolRMSD  ....  2.0000e-03 bohr
Strict Convergence                ....  False
------------------------------------------------------------------------------
                        ORCA OPTIMIZATION COORDINATE SETUP
------------------------------------------------------------------------------

The optimization will be done in new redundant internal coordinates
Making redundant internal coordinates   ...  (new redundants) done
Evaluating the initial hessian          ...  (Almloef) done
Evaluating the coordinates              ...  done
Calculating the B-matrix                .... done
Calculating the G-matrix                .... done
Diagonalizing the G-matrix              .... done
The first mode is                       ....    1
The number of degrees of freedom        ....    6

    -----------------------------------------------------------------
                    Redundant Internal Coordinates


    -----------------------------------------------------------------
         Definition                    Initial Value    Approx d2E/dq
    -----------------------------------------------------------------
      1. B(O   1,C   0)                  1.2029         1.112709   
      2. B(H   2,C   0)                  1.1075         0.337678   
      3. B(H   3,C   0)                  1.1075         0.337678   
      4. A(O   1,C   0,H   3)          122.0160         0.383465   
      5. A(H   2,C   0,H   3)          115.9680         0.285050   
      6. A(O   1,C   0,H   2)          122.0160         0.383465   
      7. I(O   1,H   3,H   2,C   0)      0.0000         0.113050   
    -----------------------------------------------------------------

Number of atoms                         .... 4
Number of degrees of freedom            .... 7

         *************************************************************
         *                GEOMETRY OPTIMIZATION CYCLE   1            *
         *************************************************************
---------------------------------
CARTESIAN COORDINATES (ANGSTROEM)
---------------------------------
  C      0.000000    0.000000    0.000000
  O      1.202900    0.000000    0.000000
  H     -0.587148    0.939049    0.000000
  H     -0.587148   -0.939049   -0.000000

----------------------------
CARTESIAN COORDINATES (A.U.)
----------------------------
  NO LB      ZA    FRAG     MASS         X           Y           Z
   0 C     6.0000    0    12.011    0.000000    0.000000    0.000000
   1 O     8.0000    0    15.999    2.273152    0.000000    0.000000
   2 H     1.0000    0     1.008   -1.109549    1.774546    0.000000
   3 H     1.0000    0     1.008   -1.109549   -1.774546   -0.000000

--------------------------------
INTERNAL COORDINATES (ANGSTROEM)
--------------------------------
 C      0   0   0     0.000000000000     0.00000000     0.00000000
 O      1   0   0     1.202900000000     0.00000000     0.00000000
 H      1   2   0     1.107500000000   122.01600000     0.00000000
 H      1   2   3     1.107500000000   122.01600000   180.00000000

---------------------------
INTERNAL COORDINATES (A.U.)
---------------------------
 C      0   0   0     0.000000000000     0.00000000     0.00000000
 O      1   0   0     2.273151566494     0.00000000     0.00000000
 H      1   2   0     2.092871693318   122.01600000     0.00000000
 H      1   2   3     2.092871693318   122.01600000   180.00000000

---------------------
BASIS SET INFORMATION
---------------------
There are 3 groups of distinct atoms

 Group   1 Type C   : 11s6p2d1f contracted to 5s3p2d1f pattern {62111/411/11/1}
 Group   2 Type O   : 11s6p2d1f contracted to 5s3p2d1f pattern {62111/411/11/1}
 Group   3 Type H   : 5s1p contracted to 3s1p pattern {311/1}

Atom   0C    basis set group =>   1
Atom   1O    basis set group =>   2
Atom   2H    basis set group =>   3
Atom   3H    basis set group =>   3

-------------------------
BASIS SET IN INPUT FORMAT
-------------------------

 # Basis set for element : H 
 NewGTO H 
 S 3 
   1      34.0613410000      0.0254393072
   2       5.1235746000      0.1900859489
   3       1.1646626000      0.8524411301
 S 1 
   1       0.3272304100      1.0000000000
 S 1 
   1       0.1030724100      1.0000000000
 P 1 
   1       0.8000000000      1.0000000000
  end;

 # Basis set for element : C 
 NewGTO C 
 S 6 
   1   13575.3496820000      0.0006064549
   2    2035.2333680000      0.0046979088
   3     463.2256235900      0.0243324776
   4     131.2001959800      0.0973999683
   5      42.8530158910      0.3019558425
   6      15.5841857660      0.6623360915
 S 2 
   1       6.2067138508      0.6559530854
   2       2.5764896527      0.3758563329
 S 1 
   1       0.5769633942      1.0000000000
 S 1 
   1       0.2297283136      1.0000000000
 S 1 
   1       0.0951644400      1.0000000000
 P 4 
   1      34.6972322440      0.0113272200
   2       7.9582622826      0.0761696592
   3       2.3780826883      0.3019225220
   4       0.8143320818      0.7278502735
 P 1 
   1       0.2888754725      1.0000000000
 P 1 
   1       0.1005682367      1.0000000000
 D 1 
   1       1.0970000000      1.0000000000
 D 1 
   1       0.3180000000      1.0000000000
 F 1 
   1       0.7610000000      1.0000000000
  end;

 # Basis set for element : O 
 NewGTO O 
 S 6 
   1   27032.3826310000      0.0005722733
   2    4052.3871392000      0.0044353233
   3     922.3272271000      0.0230201076
   4     261.2407098900      0.0928224906
   5      85.3546413510      0.2937850002
   6      31.0350352450      0.6740160450
 S 2 
   1      12.2608607280      0.6383993702
   2       4.9987076005      0.3953458713
 S 1 
   1       1.1703108158      1.0000000000
 S 1 
   1       0.4647474099      1.0000000000
 S 1 
   1       0.1850453636      1.0000000000
 P 4 
   1      63.2749548010      0.0120183321
   2      14.6270493790      0.0830054217
   3       4.4501223456      0.3199174393
   4       1.5275799647      0.7071554292
 P 1 
   1       0.5293511794      1.0000000000
 P 1 
   1       0.1747842127      1.0000000000
 D 1 
   1       2.3140000000      1.0000000000
 D 1 
   1       0.6450000000      1.0000000000
 F 1 
   1       1.4280000000      1.0000000000
  end;

---------------------------------
AUXILIARY/J BASIS SET INFORMATION
---------------------------------
There are 3 groups of distinct atoms

 Group   1 Type C   : 12s5p4d2f1g contracted to 6s4p3d1f1g pattern {711111/2111/211/2/1}
 Group   2 Type O   : 12s5p4d2f1g contracted to 6s4p3d1f1g pattern {711111/2111/211/2/1}
 Group   3 Type H   : 5s2p1d contracted to 3s1p1d pattern {311/2/1}

Atom   0C    basis set group =>   1
Atom   1O    basis set group =>   2
Atom   2H    basis set group =>   3
Atom   3H    basis set group =>   3

-------------------------------------
AUXILIARY/J BASIS SET IN INPUT FORMAT
-------------------------------------

 # Auxiliary/J basis set for element : H 
 NewAuxJGTO H 
 S 3 
   1      15.6752927000      0.1007184237
   2       3.6063578000      0.3404257499
   3       1.2080016000      0.6491996172
 S 1 
   1       0.4726794000      1.0000000000
 S 1 
   1       0.2018100000      1.0000000000
 P 2 
   1       2.0281365000      0.5596620919
   2       0.5358730000      0.5596620919
 D 1 
   1       2.2165124000      1.0000000000
  end;

 # Auxiliary/J basis set for element : C 
 NewAuxJGTO C 
 S 7 
   1    1861.0916331000      0.0134602335
   2     642.9939764000      0.0299160374
   3     235.1105725000      0.1008649584
   4      90.7028894000      0.2370970548
   5      36.7794552000      0.3924037254
   6      15.6046273000      0.3195862154
   7       6.8907294000      0.0530104441
 S 1 
   1       3.1478850000     -1.0000000000
 S 1 
   1       1.4777287000      1.0000000000
 S 1 
   1       0.7076466000      1.0000000000
 S 1 
   1       0.3430122000      1.0000000000
 S 1 
   1       0.1669453000      1.0000000000
 P 2 
   1      13.5472892000     -0.6769313712
   2       5.4669419000     -0.3779500978
 P 1 
   1       2.1751721000      1.0000000000
 P 1 
   1       0.8582194000      1.0000000000
 P 1 
   1       0.3376720000      1.0000000000
 D 2 
   1       5.9287253000     -0.3533329857
   2       1.9809209000     -0.7456525731
 D 1 
   1       0.8055417000     -1.0000000000
 D 1 
   1       0.3531244000     -1.0000000000
 F 2 
   1       1.6755626000      0.6311076882
   2       0.5997536000      0.4968166032
 G 1 
   1       1.0024600000     -1.0000000000
  end;

 # Auxiliary/J basis set for element : O 
 NewAuxJGTO O 
 S 7 
   1    2876.8216605000      0.0168151159
   2    1004.7443032000      0.0340137548
   3     369.7579954000      0.1194951309
   4     142.9442404000      0.2664627624
   5      57.8366425000      0.4202764046
   6      24.3864983000      0.2765077335
   7      10.6622662000      0.0057008815
 S 1 
   1       4.8070437000     -1.0000000000
 S 1 
   1       2.2210770000      1.0000000000
 S 1 
   1       1.0447795000      1.0000000000
 S 1 
   1       0.4968425000      1.0000000000
 S 1 
   1       0.2371384000      1.0000000000
 P 2 
   1      64.2613382000     -0.2731534179
   2      16.3006076000     -0.8168011598
 P 1 
   1       4.3550542000      1.0000000000
 P 1 
   1       1.2019554000      1.0000000000
 P 1 
   1       0.3354196000      1.0000000000
 D 2 
   1       9.2146611000     -0.4661230638
   2       2.8435251000     -0.6600908911
 D 1 
   1       0.9955759000     -1.0000000000
 D 1 
   1       0.3649441000     -1.0000000000
 F 2 
   1       2.6420115000      0.5931563945
   2       0.7345613000      0.5931563945
 G 1 
   1       1.3931000000     -1.0000000000
  end;

------------------------------------------------------------------------------
                           ORCA GTO INTEGRAL CALCULATION
                           -- RI-GTO INTEGRALS CHOSEN --
------------------------------------------------------------------------------
------------------------------------------------------------------------------
                   ___                                                        
                  /   \      - P O W E R E D   B Y -                         
                 /     \                                                     
                 |  |  |   _    _      __       _____    __    __             
                 |  |  |  | |  | |    /  \     |  _  \  |  |  /  |          
                  \  \/   | |  | |   /    \    | | | |  |  | /  /          
                 / \  \   | |__| |  /  /\  \   | |_| |  |  |/  /          
                |  |  |   |  __  | /  /__\  \  |    /   |      \           
                |  |  |   | |  | | |   __   |  |    \   |  |\   \          
                \     /   | |  | | |  |  |  |  | |\  \  |  | \   \       
                 \___/    |_|  |_| |__|  |__|  |_| \__\ |__|  \__/        
                                                                              
                      - O R C A' S   B I G   F R I E N D -                    
                                      &                                       
                       - I N T E G R A L  F E E D E R -                       
                                                                              
 v1 FN, 2020, v2 2021                                                         
------------------------------------------------------------------------------


Reading SHARK input file h2co_bp86_def2-tzvp.SHARKINP.tmp ... SHARK General Contraction Test:  Segmented basis detected
   -> Pre-screening matrix *NOT* found on disk - recalculating with NShells=30
   -> Leaving CheckPreScreeningMatrix
ok
----------------------
SHARK INTEGRAL PACKAGE
----------------------

Number of atoms                             ...      4
Number of basis functions                   ...     74
Number of shells                            ...     30
Maximum angular momentum                    ...      3
Integral batch strategy                     ... SHARK/LIBINT Hybrid
RI-J (if used) integral strategy            ... SPLIT-RIJ (Revised 2003 algorithm where possible)
Printlevel                                  ...      2
Contraction scheme used                     ... SEGMENTED contraction
Coulomb Range Separation                    ... NOT USED
Exchange Range Separation                   ... NOT USED
Finite Nucleus Model                        ... NOT USED
Auxiliary Coulomb fitting basis             ... AVAILABLE
   # of basis functions in Aux-J            ...    120
   # of shells in Aux-J                     ...     40
   Maximum angular momentum in Aux-J        ...      4
Auxiliary J/K fitting basis                 ... NOT available
Auxiliary Correlation fitting basis         ... NOT available
Auxiliary 'external' fitting basis          ... NOT available
Integral threshold                          ...     2.500000e-11
Primitive cut-off                           ...     2.500000e-12
Primitive pair pre-selection threshold      ...     2.500000e-12

Calculating pre-screening integrals         ... done (  0.0 sec) Dimension = 30
Organizing shell pair data                  ... done (  0.0 sec)
Shell pair information
Total number of shell pairs                 ...       465
Shell pairs after pre-screening             ...       464
Total number of primitive shell pairs       ...      1428
Primitive shell pairs kept                  ...      1288
          la=0 lb=0:    135 shell pairs
          la=1 lb=0:    128 shell pairs
          la=1 lb=1:     36 shell pairs
          la=2 lb=0:     64 shell pairs
          la=2 lb=1:     32 shell pairs
          la=2 lb=2:     10 shell pairs
          la=3 lb=0:     32 shell pairs
          la=3 lb=1:     16 shell pairs
          la=3 lb=2:      8 shell pairs
          la=3 lb=3:      3 shell pairs

Calculating one electron integrals          ... done (  0.0 sec)
Calculating RI/J V-Matrix + Cholesky decomp.... done (  0.0 sec)
Calculating Nuclear repulsion               ... done (  0.0 sec) ENN=     31.320154411946 Eh

SHARK setup successfully completed in   0.2 seconds

Maximum memory used throughout the entire GTOINT-calculation: 14.1 MB
-------------------------------------------------------------------------------
                                 ORCA SCF
-------------------------------------------------------------------------------

------------
SCF SETTINGS
------------
Hamiltonian:
 Density Functional     Method          .... DFT(GTOs)
 Exchange Functional    Exchange        .... B88
   X-Alpha parameter    XAlpha          ....  0.666667
   Becke's b parameter  XBeta           ....  0.004200
 Correlation Functional Correlation     .... P86
 LDA part of GGA corr.  LDAOpt          .... PW91-LDA
 Gradients option       PostSCFGGA      .... off
   Density functional embedding theory  .... OFF
   NL short-range parameter             ....  4.400000
 RI-approximation to the Coulomb term is turned on
   Number of AuxJ basis functions       .... 120


General Settings:
 Integral files         IntName         .... h2co_bp86_def2-tzvp
 Hartree-Fock type      HFTyp           .... RHF
 Total Charge           Charge          ....    0
 Multiplicity           Mult            ....    1
 Number of Electrons    NEL             ....   16
 Basis Dimension        Dim             ....   74
 Nuclear Repulsion      ENuc            ....     31.3201544119 Eh

Convergence Acceleration:
 DIIS                   CNVDIIS         .... on
   Start iteration      DIISMaxIt       ....    12
   Startup error        DIISStart       ....  0.200000
   # of expansion vecs  DIISMaxEq       ....     5
   Bias factor          DIISBfac        ....   1.050
   Max. coefficient     DIISMaxC        ....  10.000
 Trust-Rad. Augm. Hess. CNVTRAH         .... auto
   Auto Start mean grad. ratio tolernc. ....  1.125000
   Auto Start start iteration           ....    20
   Auto Start num. interpolation iter.  ....    10
   Max. Number of Micro iterations      ....    16
   Max. Number of Macro iterations      .... Maxiter - #DIIS iter
   Number of Davidson start vectors     ....     2
   Converg. threshold I  (grad. norm)   ....   1.000e-05
   Converg. threshold II (energy diff.) ....   1.000e-08
   Grad. Scal. Fac. for Micro threshold ....   0.100
   Minimum threshold for Micro iter.    ....   0.010
   NR start threshold (gradient norm)   ....   0.001
   Initial trust radius                 ....   0.400
   Minimum AH scaling param. (alpha)    ....   1.000
   Maximum AH scaling param. (alpha)    .... 1000.000
   Orbital update algorithm             .... Taylor
   White noise on init. David. guess    .... on
   Maximum white noise                  ....   0.010
   Quad. conv. algorithm                .... NR
 SOSCF                  CNVSOSCF        .... on
   Start iteration      SOSCFMaxIt      ....   150
   Startup grad/error   SOSCFStart      ....  0.003300
 Level Shifting         CNVShift        .... on
   Level shift para.    LevelShift      ....    0.2500
   Turn off err/grad.   ShiftErr        ....    0.0010
 Zerner damping         CNVZerner       .... off
 Static damping         CNVDamp         .... on
   Fraction old density DampFac         ....    0.7000
   Max. Damping (<1)    DampMax         ....    0.9800
   Min. Damping (>=0)   DampMin         ....    0.0000
   Turn off err/grad.   DampErr         ....    0.1000
 Fernandez-Rico         CNVRico         .... off

SCF Procedure:
 Maximum # iterations   MaxIter         ....   125
 SCF integral mode      SCFMode         .... Direct
   Integral package                     .... SHARK and LIBINT hybrid scheme
 Reset frequency        DirectResetFreq ....    20
 Integral Threshold     Thresh          ....  2.500e-11 Eh
 Primitive CutOff       TCut            ....  2.500e-12 Eh

Convergence Tolerance:
 Convergence Check Mode ConvCheckMode   .... Total+1el-Energy
 Convergence forced     ConvForced      .... 0
 Energy Change          TolE            ....  1.000e-08 Eh
 1-El. energy change                    ....  1.000e-05 Eh
 Orbital Gradient       TolG            ....  1.000e-05
 Orbital Rotation angle TolX            ....  1.000e-05
 DIIS Error             TolErr          ....  5.000e-07


Diagonalization of the overlap matrix:
Smallest eigenvalue                        ... 1.447e-03
Time for diagonalization                   ...    0.006 sec
Threshold for overlap eigenvalues          ... 1.000e-08
Number of eigenvalues below threshold      ... 0
Time for construction of square roots      ...    0.002 sec
Total time needed                          ...    0.008 sec

SHARK General Contraction Test:  Segmented basis detected
   -> Pre-screening matrix found on disk - Trying to read with NShells=30
   -> Passing Pre-screening matrix on to SHARK ...ok
   -> Leaving CheckPreScreeningMatrix
----------------------
SHARK INTEGRAL PACKAGE
----------------------

Number of atoms                             ...      4
Number of basis functions                   ...     74
Number of shells                            ...     30
Maximum angular momentum                    ...      3
Integral batch strategy                     ... SHARK/LIBINT Hybrid
RI-J (if used) integral strategy            ... SPLIT-RIJ (Revised 2003 algorithm where possible)
Printlevel                                  ...      2
Contraction scheme used                     ... SEGMENTED contraction
Coulomb Range Separation                    ... NOT USED
Exchange Range Separation                   ... NOT USED
Finite Nucleus Model                        ... NOT USED
Auxiliary Coulomb fitting basis             ... AVAILABLE
   # of basis functions in Aux-J            ...    120
   # of shells in Aux-J                     ...     40
   Maximum angular momentum in Aux-J        ...      4
Auxiliary J/K fitting basis                 ... NOT available
Auxiliary Correlation fitting basis         ... NOT available
Auxiliary 'external' fitting basis          ... NOT available
Integral threshold                          ...     2.500000e-11
Primitive cut-off                           ...     2.500000e-12
Primitive pair pre-selection threshold      ...     2.500000e-12

Time for model grid setup =    0.037 sec

------------------------------
INITIAL GUESS: MODEL POTENTIAL
------------------------------
Loading Hartree-Fock densities                     ... done
Calculating cut-offs                               ... done
Initializing the effective Hamiltonian             ... done
Setting up the integral package (SHARK)            ... done
Starting the Coulomb interaction                   ...     -> Generating integrals - 
    -> L=0 0 :     0.005 sec done=      4311 skipped=         7 prim-skipped=         0
    -> L=1 0 :     0.002 sec done=      4096 skipped=         0 prim-skipped=         0
    -> L=1 1 :     0.001 sec done=      1152 skipped=         0 prim-skipped=         0
    -> L=2 0 :     0.002 sec done=      2048 skipped=         0 prim-skipped=         0
    -> L=2 1 :     0.002 sec done=      1024 skipped=         0 prim-skipped=         0
    -> L=2 2 :     0.001 sec done=       320 skipped=         0 prim-skipped=         0
    -> L=3 0 :     0.001 sec done=      1024 skipped=         0 prim-skipped=         0
    -> L=3 1 :     0.002 sec done=       512 skipped=         0 prim-skipped=         0
    -> L=3 2 :     0.002 sec done=       256 skipped=         0 prim-skipped=         0
    -> L=3 3 :     0.002 sec done=        96 skipped=         0 prim-skipped=         0
done (   0.0 sec)
Reading the grid                                   ... done
Mapping shells                                     ... done
Starting the XC term evaluation                    ... done (   0.0 sec)
  promolecular density results
     # of electrons  =     15.999123207
     EX              =    -13.883564154
     EC              =     -0.564449025
     EX+EC           =    -14.448013179
Transforming the Hamiltonian                       ... done (   0.0 sec)
Diagonalizing the Hamiltonian                      ... done (   0.0 sec)
Back transforming the eigenvectors                 ... done (   0.0 sec)
Now organizing SCF variables                       ... done
                      ------------------
                      INITIAL GUESS DONE (   0.1 sec)
                      ------------------
----------------------
INITIAL GUESS ORBITALS
----------------------
                      0         1         2         3         4         5   
                 -18.98536 -10.08783  -1.10799  -0.65778  -0.53690  -0.52909
                   2.00000   2.00000   2.00000   2.00000   2.00000   2.00000
                  --------  --------  --------  --------  --------  --------
  0C   1s         0.000024  0.467649 -0.053604  0.085521 -0.000000  0.001382
  0C   2s        -0.000149  0.606740 -0.111168  0.181724  0.000000  0.002193
  0C   3s         0.000987  0.038198  0.182477 -0.311479  0.000000  0.006330
  0C   4s         0.002838 -0.007111  0.111030 -0.342234 -0.000000 -0.036324
  0C   5s        -0.003539  0.011623  0.002764 -0.061318 -0.000000 -0.059187
  0C   1pz       -0.000000  0.000000  0.000000  0.000000  0.000000 -0.000000
  0C   1px        0.000809  0.002546  0.146280  0.116883 -0.000000  0.290392
  0C   1py        0.000000  0.000000 -0.000000 -0.000000 -0.322304 -0.000000
  0C   2pz        0.000000 -0.000000 -0.000000 -0.000000 -0.000000  0.000000
  0C   2px        0.005875  0.008028  0.047068  0.063310 -0.000000  0.164926
  0C   2py       -0.000000 -0.000000  0.000000  0.000000 -0.214838 -0.000000
  0C   3pz       -0.000000  0.000000  0.000000  0.000000 -0.000000 -0.000000
  0C   3px       -0.002139 -0.001696  0.001419  0.020625  0.000000  0.023202
  0C   3py        0.000000  0.000000 -0.000000  0.000000 -0.057010  0.000000
  0C   1dz2      -0.000213 -0.002307 -0.013072  0.008756  0.000000 -0.004919
  0C   1dxz       0.000000 -0.000000 -0.000000 -0.000000  0.000000  0.000000
  0C   1dyz      -0.000000 -0.000000  0.000000 -0.000000 -0.000000  0.000000
  0C   1dx2y2     0.000332  0.001880  0.018393  0.005070 -0.000000  0.019079
  0C   1dxy       0.000000  0.000000  0.000000 -0.000000 -0.002522 -0.000000
  0C   2dz2      -0.000428 -0.002985 -0.008636  0.009229  0.000000  0.000270
  0C   2dxz      -0.000000 -0.000000  0.000000 -0.000000 -0.000000  0.000000
  0C   2dyz       0.000000  0.000000 -0.000000  0.000000  0.000000 -0.000000
  0C   2dx2y2     0.002490  0.002843  0.004751 -0.002361 -0.000000 -0.001123
  0C   2dxy       0.000000  0.000000 -0.000000  0.000000 -0.019177  0.000000
  0C   1f0       -0.000000  0.000000 -0.000000  0.000000  0.000000 -0.000000
  0C   1f+1      -0.000075 -0.000679 -0.004943 -0.001036  0.000000 -0.006421
  0C   1f-1       0.000000  0.000000 -0.000000 -0.000000  0.005147  0.000000
  0C   1f+2       0.000000 -0.000000  0.000000 -0.000000 -0.000000  0.000000
  0C   1f-2      -0.000000  0.000000  0.000000 -0.000000  0.000000 -0.000000
  0C   1f+3       0.000481 -0.002732 -0.008420  0.005511  0.000000 -0.004864
  0C   1f-3       0.000000 -0.000000  0.000000 -0.000000  0.005144  0.000000
  1O   1s         0.435897 -0.000063 -0.094402 -0.044338 -0.000000  0.032504
  1O   2s         0.638413 -0.000243 -0.220839 -0.104826 -0.000000  0.076563
  1O   3s         0.037018  0.003364  0.335362  0.164273  0.000000 -0.113935
  1O   4s        -0.027425 -0.012552  0.404387  0.242893  0.000000 -0.190066
  1O   5s         0.009691 -0.004511  0.108758  0.141959  0.000000 -0.160551
  1O   1pz        0.000000 -0.000000 -0.000000  0.000000  0.000000 -0.000000
  1O   1px       -0.001918 -0.000696 -0.133901  0.145523  0.000000 -0.399079
  1O   1py       -0.000000  0.000000 -0.000000 -0.000000 -0.279127 -0.000000
  1O   2pz       -0.000000  0.000000 -0.000000  0.000000 -0.000000 -0.000000
  1O   2px        0.004846  0.009741 -0.091021  0.098359 -0.000000 -0.287378
  1O   2py       -0.000000 -0.000000  0.000000 -0.000000 -0.219382 -0.000000
  1O   3pz        0.000000 -0.000000 -0.000000  0.000000  0.000000  0.000000
  1O   3px       -0.000899  0.000717 -0.009343  0.034800 -0.000000 -0.122023
  1O   3py       -0.000000 -0.000000  0.000000 -0.000000 -0.087623 -0.000000
  1O   1dz2      -0.000184  0.000028 -0.004037  0.001687  0.000000 -0.004968
  1O   1dxz      -0.000000  0.000000 -0.000000  0.000000  0.000000 -0.000000
  1O   1dyz      -0.000000  0.000000 -0.000000 -0.000000  0.000000 -0.000000
  1O   1dx2y2     0.000381 -0.000029  0.006866 -0.002839 -0.000000  0.008545
  1O   1dxy      -0.000000 -0.000000  0.000000 -0.000000  0.008105  0.000000
  1O   2dz2       0.000601  0.001915 -0.007341  0.003494 -0.000000 -0.005664
  1O   2dxz       0.000000 -0.000000  0.000000 -0.000000 -0.000000  0.000000
  1O   2dyz       0.000000  0.000000  0.000000 -0.000000  0.000000  0.000000
  1O   2dx2y2    -0.001213 -0.003527  0.012844 -0.003911  0.000000  0.011981
  1O   2dxy       0.000000  0.000000 -0.000000  0.000000  0.020206  0.000000
  1O   1f0        0.000000 -0.000000  0.000000 -0.000000 -0.000000  0.000000
  1O   1f+1      -0.000138 -0.000464  0.002208 -0.001080  0.000000  0.001966
  1O   1f-1      -0.000000 -0.000000 -0.000000  0.000000  0.001391  0.000000
  1O   1f+2      -0.000000  0.000000 -0.000000  0.000000  0.000000 -0.000000
  1O   1f-2      -0.000000  0.000000 -0.000000 -0.000000  0.000000 -0.000000
  1O   1f+3      -0.000145 -0.000782  0.002673 -0.000654  0.000000  0.003009
  1O   1f-3       0.000000 -0.000000 -0.000000  0.000000  0.005252  0.000000
  2H   1s         0.000296 -0.000789  0.010973 -0.105492 -0.109358 -0.070221
  2H   2s         0.001285 -0.001578  0.005289 -0.119273 -0.145604 -0.092560
  2H   3s        -0.000101 -0.002996  0.000993 -0.014032 -0.025108 -0.017438
  2H   1pz       -0.000000 -0.000000  0.000000  0.000000  0.000000  0.000000
  2H   1px        0.000224 -0.001291  0.001967 -0.007303 -0.013829 -0.001160
  2H   1py       -0.000202  0.002115 -0.000363  0.015777  0.010703  0.011762
  3H   1s         0.000296 -0.000789  0.010973 -0.105492  0.109358 -0.070221
  3H   2s         0.001285 -0.001578  0.005289 -0.119273  0.145604 -0.092560
  3H   3s        -0.000101 -0.002996  0.000993 -0.014032  0.025108 -0.017438
  3H   1pz       -0.000000 -0.000000 -0.000000  0.000000  0.000000  0.000000
  3H   1px        0.000224 -0.001291  0.001967 -0.007303  0.013829 -0.001160
  3H   1py        0.000202 -0.002115  0.000363 -0.015777  0.010703 -0.011762
                      6         7         8         9        10        11   
                  -0.46665  -0.34176  -0.16357   0.01205   0.06099   0.06776
                   2.00000   2.00000   0.00000   0.00000   0.00000   0.00000
                  --------  --------  --------  --------  --------  --------
  0C   1s        -0.000000  0.000000 -0.000000  0.055672  0.018342  0.000000
  0C   2s        -0.000000  0.000000 -0.000000  0.120739  0.041349  0.000000
  0C   3s        -0.000000 -0.000000 -0.000000 -0.230338 -0.009607 -0.000000
  0C   4s         0.000000  0.000000  0.000000 -0.496367 -0.675875 -0.000000
  0C   5s        -0.000000 -0.000000  0.000000 -1.651461 -1.656590  0.000000
  0C   1pz        0.236001 -0.000000 -0.420145 -0.000000 -0.000000 -0.000000
  0C   1px        0.000000  0.000000  0.000000  0.168556 -0.055656  0.000000
  0C   1py       -0.000000 -0.170526  0.000000  0.000000  0.000000 -0.346848
  0C   2pz        0.183735 -0.000000 -0.416835 -0.000000 -0.000000 -0.000000
  0C   2px        0.000000 -0.000000  0.000000  0.132904 -0.435659  0.000000
  0C   2py        0.000000 -0.116651  0.000000  0.000000  0.000000 -0.298598
  0C   3pz        0.055122 -0.000000 -0.350180  0.000000  0.000000  0.000000
  0C   3px       -0.000000  0.000000 -0.000000  0.664196 -1.547294 -0.000000
  0C   3py       -0.000000 -0.020785 -0.000000  0.000000  0.000000 -1.034804
  0C   1dz2      -0.000000  0.000000 -0.000000 -0.010452 -0.015219 -0.000000
  0C   1dxz       0.019264 -0.000000  0.013710 -0.000000 -0.000000 -0.000000
  0C   1dyz      -0.000000 -0.000000 -0.000000 -0.000000  0.000000  0.000000
  0C   1dx2y2     0.000000 -0.000000  0.000000 -0.007878  0.023113  0.000000
  0C   1dxy       0.000000  0.032409 -0.000000  0.000000  0.000000 -0.009013
  0C   2dz2      -0.000000  0.000000 -0.000000 -0.033645  0.037886 -0.000000
  0C   2dxz       0.023928 -0.000000  0.037641  0.000000  0.000000  0.000000
  0C   2dyz       0.000000  0.000000  0.000000  0.000000 -0.000000  0.000000
  0C   2dx2y2     0.000000 -0.000000  0.000000 -0.041159 -0.059116  0.000000
  0C   2dxy      -0.000000  0.033359 -0.000000 -0.000000  0.000000 -0.135479
  0C   1f0       -0.008632  0.000000  0.004516  0.000000  0.000000 -0.000000
  0C   1f+1      -0.000000  0.000000 -0.000000  0.003030  0.009343 -0.000000
  0C   1f-1      -0.000000  0.000173 -0.000000 -0.000000 -0.000000 -0.008593
  0C   1f+2       0.005725 -0.000000  0.004392 -0.000000  0.000000  0.000000
  0C   1f-2      -0.000000  0.000000 -0.000000 -0.000000 -0.000000 -0.000000
  0C   1f+3      -0.000000  0.000000 -0.000000 -0.005727  0.006597 -0.000000
  0C   1f-3       0.000000 -0.006651  0.000000  0.000000  0.000000 -0.000241
  1O   1s         0.000000  0.000000 -0.000000  0.000900 -0.038003 -0.000000
  1O   2s         0.000000  0.000000  0.000000  0.002733 -0.094907 -0.000000
  1O   3s         0.000000 -0.000000  0.000000 -0.013971  0.199125  0.000000
  1O   4s        -0.000000  0.000000 -0.000000  0.051453  0.130333 -0.000000
  1O   5s        -0.000000  0.000000  0.000000 -0.176956  2.134259  0.000000
  1O   1pz        0.432946 -0.000000  0.309081  0.000000  0.000000  0.000000
  1O   1px       -0.000000  0.000000 -0.000000 -0.051757 -0.084864 -0.000000
  1O   1py        0.000000  0.428185 -0.000000 -0.000000 -0.000000  0.090254
  1O   2pz        0.346176 -0.000000  0.244904  0.000000  0.000000  0.000000
  1O   2px        0.000000 -0.000000  0.000000 -0.054711 -0.194518  0.000000
  1O   2py        0.000000  0.347269 -0.000000 -0.000000 -0.000000  0.073087
  1O   3pz        0.162832  0.000000  0.279053 -0.000000 -0.000000 -0.000000
  1O   3px        0.000000 -0.000000  0.000000  0.005148 -0.655784 -0.000000
  1O   3py        0.000000  0.219219 -0.000000 -0.000000 -0.000000  0.300452
  1O   1dz2      -0.000000 -0.000000  0.000000 -0.001107  0.001535 -0.000000
  1O   1dxz      -0.008998  0.000000  0.004635 -0.000000  0.000000 -0.000000
  1O   1dyz       0.000000  0.000000  0.000000  0.000000 -0.000000 -0.000000
  1O   1dx2y2     0.000000 -0.000000  0.000000 -0.000775 -0.002727  0.000000
  1O   1dxy       0.000000 -0.002657  0.000000  0.000000 -0.000000  0.008333
  1O   2dz2       0.000000 -0.000000  0.000000  0.000341 -0.027959  0.000000
  1O   2dxz      -0.023082 -0.000000  0.015302  0.000000  0.000000  0.000000
  1O   2dyz      -0.000000 -0.000000 -0.000000  0.000000  0.000000 -0.000000
  1O   2dx2y2    -0.000000  0.000000 -0.000000 -0.011366  0.048275 -0.000000
  1O   2dxy      -0.000000 -0.005824 -0.000000 -0.000000 -0.000000  0.007479
  1O   1f0       -0.003649 -0.000000  0.000733  0.000000  0.000000  0.000000
  1O   1f+1      -0.000000  0.000000 -0.000000  0.000377  0.002766 -0.000000
  1O   1f-1      -0.000000 -0.000551 -0.000000  0.000000 -0.000000  0.000755
  1O   1f+2       0.004688  0.000000 -0.001040  0.000000 -0.000000 -0.000000
  1O   1f-2      -0.000000  0.000000  0.000000  0.000000  0.000000 -0.000000
  1O   1f+3      -0.000000  0.000000 -0.000000 -0.000775  0.003165 -0.000000
  1O   1f-3      -0.000000 -0.002142 -0.000000 -0.000000 -0.000000  0.002560
  2H   1s        -0.000000 -0.120798 -0.000000  0.065219  0.021926  0.035383
  2H   2s         0.000000 -0.197730  0.000000  0.033394  0.043264 -0.145933
  2H   3s        -0.000000 -0.114908 -0.000000  1.571144  0.039207  1.900912
  2H   1pz        0.007197 -0.000000 -0.024048 -0.000000  0.000000 -0.000000
  2H   1px        0.000000 -0.006791  0.000000 -0.014198 -0.027882 -0.031822
  2H   1py        0.000000  0.009609  0.000000  0.036021 -0.009160  0.044137
  3H   1s         0.000000  0.120798  0.000000  0.065219  0.021926 -0.035383
  3H   2s         0.000000  0.197730  0.000000  0.033394  0.043264  0.145933
  3H   3s        -0.000000  0.114908 -0.000000  1.571144  0.039207 -1.900912
  3H   1pz        0.007197 -0.000000 -0.024048  0.000000  0.000000  0.000000
  3H   1px        0.000000  0.006791  0.000000 -0.014198 -0.027882  0.031822
  3H   1py        0.000000  0.009609  0.000000 -0.036021  0.009160  0.044137
                     12        13        14        15        16        17   
                   0.16946   0.17180   0.21279   0.31727   0.33748   0.35522
                   0.00000   0.00000   0.00000   0.00000   0.00000   0.00000
                  --------  --------  --------  --------  --------  --------
  0C   1s        -0.000000 -0.012787  0.000000  0.003576  0.073892 -0.000000
  0C   2s        -0.000000 -0.018251  0.000000  0.009653  0.160049 -0.000000
  0C   3s        -0.000000 -0.141192 -0.000000  0.302861 -0.141737  0.000000
  0C   4s         0.000000  1.218058  0.000000 -2.887005 -2.134030  0.000000
  0C   5s        -0.000000 -4.555858  0.000000 -0.283529  4.105599  0.000000
  0C   1pz       -0.296425  0.000000  0.000000  0.000000 -0.000000 -0.000000
  0C   1px       -0.000000  0.007859  0.000000  0.006438 -0.202951  0.000000
  0C   1py       -0.000000  0.000000  0.021388  0.000000 -0.000000 -0.332692
  0C   2pz       -0.684193  0.000000  0.000000 -0.000000  0.000000  0.000000
  0C   2px       -0.000000 -0.132997  0.000000 -1.383849  0.052589  0.000000
  0C   2py       -0.000000  0.000000  0.248853  0.000000 -0.000000 -1.151524
  0C   3pz        1.308278 -0.000000 -0.000000 -0.000000  0.000000  0.000000
  0C   3px        0.000000  1.403305  0.000000 -0.418802  0.002524 -0.000000
  0C   3py       -0.000000  0.000000 -3.384580 -0.000000  0.000000  1.520063
  0C   1dz2      -0.000000 -0.028112 -0.000000  0.039659 -0.014416  0.000000
  0C   1dxz      -0.010253  0.000000 -0.000000 -0.000000 -0.000000 -0.000000
  0C   1dyz       0.000000  0.000000  0.000000  0.000000  0.000000  0.000000
  0C   1dx2y2    -0.000000 -0.020945  0.000000 -0.057037  0.016195 -0.000000
  0C   1dxy      -0.000000  0.000000 -0.018116  0.000000 -0.000000 -0.025719
  0C   2dz2      -0.000000 -0.062168 -0.000000  0.357356 -0.140478  0.000000
  0C   2dxz      -0.034810  0.000000  0.000000 -0.000000  0.000000  0.000000
  0C   2dyz      -0.000000 -0.000000 -0.000000 -0.000000 -0.000000 -0.000000
  0C   2dx2y2    -0.000000 -0.069061  0.000000 -0.616291  0.341285 -0.000000
  0C   2dxy       0.000000 -0.000000  0.089948 -0.000000  0.000000  0.065978
  0C   1f0        0.012618 -0.000000 -0.000000  0.000000 -0.000000 -0.000000
  0C   1f+1      -0.000000 -0.000554 -0.000000  0.052144 -0.024742  0.000000
  0C   1f-1       0.000000 -0.000000 -0.000827 -0.000000  0.000000  0.034598
  0C   1f+2      -0.008450  0.000000  0.000000 -0.000000  0.000000  0.000000
  0C   1f-2       0.000000  0.000000  0.000000  0.000000  0.000000  0.000000
  0C   1f+3      -0.000000 -0.013158 -0.000000  0.074211  0.013685  0.000000
  0C   1f-3      -0.000000  0.000000 -0.016143 -0.000000  0.000000  0.009181
  1O   1s        -0.000000 -0.006670 -0.000000 -0.012804 -0.026134  0.000000
  1O   2s        -0.000000 -0.015885 -0.000000 -0.023759 -0.063102  0.000000
  1O   3s         0.000000  0.028191  0.000000 -0.110910  0.107585 -0.000000
  1O   4s         0.000000  0.039682 -0.000000  0.912436  0.185886 -0.000000
  1O   5s        -0.000000  0.159829 -0.000000  2.186683 -0.714469  0.000000
  1O   1pz       -0.029873  0.000000  0.000000 -0.000000  0.000000  0.000000
  1O   1px        0.000000  0.038309 -0.000000  0.266284 -0.254364  0.000000
  1O   1py        0.000000 -0.000000  0.209140 -0.000000  0.000000  0.065556
  1O   2pz        0.006278  0.000000  0.000000  0.000000  0.000000  0.000000
  1O   2px        0.000000  0.073622  0.000000 -0.142305 -0.123694  0.000000
  1O   2py        0.000000 -0.000000  0.152623  0.000000  0.000000  0.056742
  1O   3pz       -0.060965  0.000000 -0.000000  0.000000 -0.000000 -0.000000
  1O   3px       -0.000000 -0.215910  0.000000 -2.314790 -0.368081  0.000000
  1O   3py        0.000000  0.000000  0.336865  0.000000  0.000000  0.194166
  1O   1dz2      -0.000000 -0.000126 -0.000000  0.011423  0.007387 -0.000000
  1O   1dxz       0.008550 -0.000000 -0.000000  0.000000 -0.000000 -0.000000
  1O   1dyz      -0.000000  0.000000 -0.000000  0.000000  0.000000 -0.000000
  1O   1dx2y2    -0.000000 -0.001189  0.000000 -0.020027 -0.010661  0.000000
  1O   1dxy      -0.000000  0.000000 -0.002424 -0.000000  0.000000  0.014042
  1O   2dz2      -0.000000 -0.031386  0.000000 -0.084253  0.031305 -0.000000
  1O   2dxz       0.005362 -0.000000 -0.000000 -0.000000  0.000000  0.000000
  1O   2dyz       0.000000  0.000000 -0.000000 -0.000000  0.000000 -0.000000
  1O   2dx2y2    -0.000000  0.004615 -0.000000  0.152698 -0.059726  0.000000
  1O   2dxy       0.000000 -0.000000  0.023754 -0.000000  0.000000  0.039949
  1O   1f0        0.000165 -0.000000  0.000000 -0.000000  0.000000  0.000000
  1O   1f+1       0.000000  0.003130 -0.000000  0.006163 -0.000425 -0.000000
  1O   1f-1       0.000000  0.000000  0.000005  0.000000 -0.000000 -0.000596
  1O   1f+2      -0.000288  0.000000 -0.000000  0.000000 -0.000000 -0.000000
  1O   1f-2      -0.000000  0.000000 -0.000000  0.000000  0.000000 -0.000000
  1O   1f+3      -0.000000 -0.000203 -0.000000  0.008948 -0.000103 -0.000000
  1O   1f-3       0.000000 -0.000000  0.001415  0.000000  0.000000  0.000757
  2H   1s         0.000000  0.073102  0.043493 -0.018735  0.091023  0.121227
  2H   2s         0.000000  0.419611  0.405415 -0.077575  0.905758  1.360526
  2H   3s         0.000000  1.577688  2.213549 -0.077654 -1.927533 -2.364704
  2H   1pz        0.009934 -0.000000 -0.000000  0.000000  0.000000  0.000000
  2H   1px        0.000000  0.011970 -0.024314  0.013890  0.024925  0.011846
  2H   1py        0.000000  0.027794 -0.016889 -0.000970 -0.037004 -0.069729
  3H   1s         0.000000  0.073102 -0.043493 -0.018735  0.091023 -0.121227
  3H   2s         0.000000  0.419611 -0.405415 -0.077575  0.905758 -1.360526
  3H   3s         0.000000  1.577688 -2.213549 -0.077654 -1.927533  2.364704
  3H   1pz        0.009934 -0.000000 -0.000000 -0.000000 -0.000000 -0.000000
  3H   1px        0.000000  0.011970  0.024314  0.013890  0.024925 -0.011846
  3H   1py       -0.000000 -0.027794 -0.016889  0.000970  0.037004 -0.069729
                     18        19        20        21        22        23   
                   0.36722   0.41768   0.49470   0.51393   0.62131   0.70158
                   0.00000   0.00000   0.00000   0.00000   0.00000   0.00000
                  --------  --------  --------  --------  --------  --------
  0C   1s        -0.010660 -0.000000 -0.000000  0.000000 -0.009705 -0.000000
  0C   2s        -0.021467 -0.000000 -0.000000  0.000000 -0.025229 -0.000000
  0C   3s        -0.080267  0.000000  0.000000  0.000000 -0.024271  0.000000
  0C   4s         0.801226  0.000000 -0.000000 -0.000000  2.122005 -0.000000
  0C   5s        -3.663669 -0.000000 -0.000000 -0.000000  2.486473 -0.000000
  0C   1pz        0.000000 -0.094723  0.000000 -0.000000  0.000000  0.055482
  0C   1px       -0.421222 -0.000000 -0.000000 -0.000000  0.045915 -0.000000
  0C   1py       -0.000000  0.000000  0.000000  0.171444  0.000000  0.000000
  0C   2pz       -0.000000  0.081250 -0.000000  0.000000  0.000000  0.067561
  0C   2px       -1.043673 -0.000000  0.000000 -0.000000  1.648271 -0.000000
  0C   2py       -0.000000  0.000000 -0.000000  0.303669  0.000000  0.000000
  0C   3pz       -0.000000  0.782462 -0.000000  0.000000  0.000000  0.538766
  0C   3px        1.824113  0.000000  0.000000 -0.000000  1.832516 -0.000000
  0C   3py        0.000000 -0.000000 -0.000000 -3.652489 -0.000000 -0.000000
  0C   1dz2      -0.003010 -0.000000  0.000000  0.000000 -0.018891  0.000000
  0C   1dxz       0.000000 -0.006279  0.000000 -0.000000  0.000000  0.010374
  0C   1dyz      -0.000000 -0.000000 -0.002419 -0.000000  0.000000  0.000000
  0C   1dx2y2     0.015894  0.000000  0.000000 -0.000000  0.034751 -0.000000
  0C   1dxy      -0.000000 -0.000000  0.000000  0.007490 -0.000000 -0.000000
  0C   2dz2      -0.102619  0.000000  0.000000  0.000000  0.172659 -0.000000
  0C   2dxz      -0.000000  0.109744 -0.000000  0.000000  0.000000  1.242872
  0C   2dyz       0.000000  0.000000  0.935058 -0.000000 -0.000000  0.000000
  0C   2dx2y2     0.224371  0.000000  0.000000 -0.000000  0.669886 -0.000000
  0C   2dxy       0.000000 -0.000000  0.000000 -0.513861 -0.000000  0.000000
  0C   1f0        0.000000 -0.009287  0.000000 -0.000000 -0.000000 -0.013537
  0C   1f+1       0.015164 -0.000000 -0.000000  0.000000 -0.049144  0.000000
  0C   1f-1       0.000000 -0.000000  0.000000 -0.015280 -0.000000  0.000000
  0C   1f+2      -0.000000  0.017290 -0.000000  0.000000  0.000000  0.026600
  0C   1f-2      -0.000000 -0.000000 -0.001744 -0.000000  0.000000  0.000000
  0C   1f+3      -0.028191 -0.000000  0.000000  0.000000 -0.014506  0.000000
  0C   1f-3       0.000000  0.000000 -0.000000  0.017198 -0.000000 -0.000000
  1O   1s        -0.019273  0.000000 -0.000000  0.000000 -0.046853  0.000000
  1O   2s        -0.045141 -0.000000 -0.000000  0.000000 -0.100168  0.000000
  1O   3s         0.051148  0.000000  0.000000  0.000000 -0.021653 -0.000000
  1O   4s         0.262967 -0.000000  0.000000 -0.000000  1.861043 -0.000000
  1O   5s        -0.196522  0.000000  0.000000  0.000000 -7.009414  0.000000
  1O   1pz       -0.000000  0.297264 -0.000000  0.000000 -0.000000 -0.099121
  1O   1px       -0.174055 -0.000000 -0.000000 -0.000000  0.037129 -0.000000
  1O   1py        0.000000 -0.000000 -0.000000 -0.244458  0.000000 -0.000000
  1O   2pz       -0.000000  0.608980 -0.000000  0.000000  0.000000 -0.309663
  1O   2px       -0.178184  0.000000 -0.000000 -0.000000  0.540259 -0.000000
  1O   2py        0.000000  0.000000 -0.000000 -0.530766 -0.000000 -0.000000
  1O   3pz        0.000000 -1.685902  0.000000 -0.000000 -0.000000 -0.696536
  1O   3px       -0.439568 -0.000000 -0.000000 -0.000000  1.921368 -0.000000
  1O   3py        0.000000 -0.000000  0.000000  2.367955  0.000000 -0.000000
  1O   1dz2       0.006463 -0.000000 -0.000000  0.000000 -0.009623 -0.000000
  1O   1dxz       0.000000 -0.012137  0.000000 -0.000000 -0.000000 -0.030935
  1O   1dyz      -0.000000  0.000000  0.007953 -0.000000  0.000000  0.000000
  1O   1dx2y2    -0.011519 -0.000000  0.000000 -0.000000  0.023728 -0.000000
  1O   1dxy       0.000000 -0.000000  0.000000  0.019204  0.000000 -0.000000
  1O   2dz2       0.013862  0.000000 -0.000000 -0.000000  0.080330 -0.000000
  1O   2dxz      -0.000000  0.020038 -0.000000  0.000000 -0.000000 -0.001990
  1O   2dyz       0.000000  0.000000  0.072151  0.000000 -0.000000  0.000000
  1O   2dx2y2    -0.028367 -0.000000  0.000000  0.000000 -0.055745  0.000000
  1O   2dxy       0.000000 -0.000000  0.000000 -0.034064  0.000000  0.000000
  1O   1f0       -0.000000  0.001745 -0.000000  0.000000 -0.000000  0.007220
  1O   1f+1       0.001632 -0.000000 -0.000000  0.000000 -0.006313  0.000000
  1O   1f-1      -0.000000  0.000000 -0.000000 -0.001680  0.000000  0.000000
  1O   1f+2       0.000000 -0.002318  0.000000 -0.000000  0.000000 -0.009267
  1O   1f-2      -0.000000 -0.000000 -0.001539  0.000000  0.000000 -0.000000
  1O   1f+3       0.000584 -0.000000  0.000000  0.000000 -0.004754  0.000000
  1O   1f-3       0.000000 -0.000000 -0.000000 -0.006577 -0.000000  0.000000
  2H   1s        -0.084188  0.000000 -0.000000 -0.014365  0.014717  0.000000
  2H   2s        -0.862003 -0.000000  0.000000 -0.357687  0.442875 -0.000000
  2H   3s         2.347587  0.000000  0.000000  2.591284 -0.029456  0.000000
  2H   1pz       -0.000000  0.016458  0.052001 -0.000000 -0.000000 -0.048804
  2H   1px       -0.035713 -0.000000  0.000000 -0.011380  0.038470 -0.000000
  2H   1py        0.018204  0.000000 -0.000000  0.028723 -0.038922  0.000000
  3H   1s        -0.084188 -0.000000  0.000000  0.014365  0.014717 -0.000000
  3H   2s        -0.862003  0.000000  0.000000  0.357687  0.442875 -0.000000
  3H   3s         2.347587  0.000000 -0.000000 -2.591284 -0.029456 -0.000000
  3H   1pz        0.000000  0.016458 -0.052001  0.000000 -0.000000 -0.048804
  3H   1px       -0.035713  0.000000  0.000000  0.011380  0.038470 -0.000000
  3H   1py       -0.018204  0.000000  0.000000  0.028723  0.038922 -0.000000
                     24        25        26        27        28        29   
                   0.73743   0.85414   0.93791   1.20484   1.24611   1.29070
                   0.00000   0.00000   0.00000   0.00000   0.00000   0.00000
                  --------  --------  --------  --------  --------  --------
  0C   1s        -0.017819 -0.000000  0.037425  0.103027 -0.000000  0.000000
  0C   2s        -0.045055  0.000000  0.091222  0.313823 -0.000000  0.000000
  0C   3s        -0.172957  0.000000 -0.085180 -3.412919  0.000000 -0.000000
  0C   4s         1.944328 -0.000000 -0.726498  9.067456 -0.000000  0.000000
  0C   5s         3.073148  0.000000 -0.510127 -2.971809  0.000000 -0.000000
  0C   1pz       -0.000000  0.000000 -0.000000 -0.000000 -1.211855 -0.000000
  0C   1px       -0.019317 -0.000000 -0.561223  0.217775 -0.000000  0.000000
  0C   1py        0.000000 -0.207299  0.000000  0.000000 -0.000000  0.000000
  0C   2pz       -0.000000 -0.000000  0.000000  0.000000  1.673314  0.000000
  0C   2px       -0.166244 -0.000000 -1.092993  1.219615 -0.000000  0.000000
  0C   2py        0.000000 -1.201352 -0.000000  0.000000  0.000000 -0.000000
  0C   3pz       -0.000000  0.000000 -0.000000 -0.000000 -0.769639 -0.000000
  0C   3px       -0.121729 -0.000000 -1.007151  1.254183 -0.000000  0.000000
  0C   3py        0.000000 -1.431079  0.000000 -0.000000 -0.000000  0.000000
  0C   1dz2      -0.013588 -0.000000 -0.024889 -0.009906  0.000000  0.000000
  0C   1dxz      -0.000000  0.000000 -0.000000 -0.000000 -0.008162  0.000000
  0C   1dyz      -0.000000  0.000000 -0.000000 -0.000000 -0.000000  0.019003
  0C   1dx2y2     0.006284 -0.000000  0.036163  0.061222 -0.000000  0.000000
  0C   1dxy      -0.000000  0.020259  0.000000  0.000000 -0.000000  0.000000
  0C   2dz2      -1.268826 -0.000000  0.783083 -0.688349  0.000000 -0.000000
  0C   2dxz      -0.000000  0.000000 -0.000000  0.000000  0.253947  0.000000
  0C   2dyz       0.000000 -0.000000  0.000000  0.000000  0.000000 -0.013013
  0C   2dx2y2    -0.641808 -0.000000 -1.587738  0.590361 -0.000000  0.000000
  0C   2dxy      -0.000000  2.103853 -0.000000 -0.000000 -0.000000  0.000000
  0C   1f0        0.000000 -0.000000 -0.000000  0.000000 -0.026039 -0.000000
  0C   1f+1       0.018660  0.000000  0.045721 -0.066052  0.000000 -0.000000
  0C   1f-1      -0.000000  0.061961 -0.000000 -0.000000 -0.000000  0.000000
  0C   1f+2      -0.000000 -0.000000  0.000000 -0.000000  0.009023  0.000000
  0C   1f-2      -0.000000  0.000000 -0.000000  0.000000  0.000000 -0.102888
  0C   1f+3      -0.095855  0.000000  0.047318 -0.208300  0.000000 -0.000000
  0C   1f-3       0.000000 -0.036680  0.000000  0.000000 -0.000000  0.000000
  1O   1s        -0.016873 -0.000000 -0.026292 -0.002602 -0.000000 -0.000000
  1O   2s        -0.033919 -0.000000 -0.058780 -0.010657  0.000000 -0.000000
  1O   3s        -0.047269 -0.000000 -0.062528  0.193101 -0.000000  0.000000
  1O   4s         0.945478  0.000000  1.870250 -1.078047  0.000000 -0.000000
  1O   5s        -2.872305 -0.000000  1.145033 -3.347876  0.000000 -0.000000
  1O   1pz        0.000000  0.000000 -0.000000 -0.000000 -0.053342 -0.000000
  1O   1px        0.035308 -0.000000 -0.281021  0.007611 -0.000000  0.000000
  1O   1py        0.000000 -0.154094  0.000000  0.000000 -0.000000  0.000000
  1O   2pz        0.000000  0.000000  0.000000 -0.000000 -0.203743 -0.000000
  1O   2px        0.130431 -0.000000 -1.081776  0.969860 -0.000000  0.000000
  1O   2py       -0.000000 -0.602600  0.000000 -0.000000 -0.000000  0.000000
  1O   3pz        0.000000 -0.000000 -0.000000 -0.000000 -0.018583 -0.000000
  1O   3px        0.867040  0.000000  0.380758  1.526682 -0.000000  0.000000
  1O   3py        0.000000  0.342952 -0.000000  0.000000  0.000000 -0.000000
  1O   1dz2      -0.012149 -0.000000  0.003550  0.003837  0.000000  0.000000
  1O   1dxz       0.000000  0.000000 -0.000000 -0.000000 -0.014091 -0.000000
  1O   1dyz       0.000000  0.000000 -0.000000  0.000000  0.000000 -0.003149
  1O   1dx2y2     0.001302  0.000000 -0.008044 -0.007705  0.000000 -0.000000
  1O   1dxy       0.000000 -0.027880  0.000000 -0.000000 -0.000000  0.000000
  1O   2dz2      -0.127758 -0.000000  0.018755 -0.061228  0.000000 -0.000000
  1O   2dxz      -0.000000 -0.000000  0.000000 -0.000000  0.049242  0.000000
  1O   2dyz       0.000000 -0.000000  0.000000  0.000000  0.000000 -0.838541
  1O   2dx2y2    -0.103355  0.000000 -0.055525 -0.438054  0.000000 -0.000000
  1O   2dxy       0.000000  0.095572 -0.000000 -0.000000  0.000000 -0.000000
  1O   1f0       -0.000000 -0.000000  0.000000  0.000000  0.021552  0.000000
  1O   1f+1       0.002109  0.000000 -0.008012 -0.017356  0.000000 -0.000000
  1O   1f-1       0.000000  0.002201 -0.000000 -0.000000  0.000000 -0.000000
  1O   1f+2       0.000000  0.000000 -0.000000 -0.000000 -0.028471 -0.000000
  1O   1f-2      -0.000000  0.000000  0.000000 -0.000000 -0.000000  0.007788
  1O   1f+3      -0.008681 -0.000000 -0.010738 -0.030102  0.000000 -0.000000
  1O   1f-3      -0.000000  0.019826 -0.000000 -0.000000  0.000000 -0.000000
  2H   1s        -0.000727 -0.057752  0.035659 -0.094503  0.000000 -0.000000
  2H   2s        -1.640143  2.319408 -0.365606 -1.097131 -0.000000  0.000000
  2H   3s        -0.559491  0.203736 -0.043503  1.243937  0.000000  0.000000
  2H   1pz       -0.000000  0.000000 -0.000000 -0.000000  0.130546  0.319518
  2H   1px       -0.069696  0.168568  0.028794 -0.172734  0.000000 -0.000000
  2H   1py        0.120527 -0.098164  0.023493  0.235720  0.000000  0.000000
  3H   1s        -0.000727  0.057752  0.035659 -0.094503 -0.000000 -0.000000
  3H   2s        -1.640143 -2.319408 -0.365606 -1.097131  0.000000 -0.000000
  3H   3s        -0.559491 -0.203736 -0.043503  1.243937 -0.000000  0.000000
  3H   1pz        0.000000 -0.000000  0.000000  0.000000  0.130546 -0.319518
  3H   1px       -0.069696 -0.168568  0.028794 -0.172734  0.000000 -0.000000
  3H   1py       -0.120527 -0.098164 -0.023493 -0.235720  0.000000 -0.000000
                     30        31        32        33        34        35   
                   1.35081   1.38076   1.43647   1.50349   1.65937   1.74105
                   0.00000   0.00000   0.00000   0.00000   0.00000   0.00000
                  --------  --------  --------  --------  --------  --------
  0C   1s        -0.003372  0.000000 -0.000000 -0.047739  0.000000 -0.000000
  0C   2s         0.003643 -0.000000 -0.000000 -0.151260  0.000000 -0.000000
  0C   3s         1.131079 -0.000000  0.000000  1.149575 -0.000000  0.000000
  0C   4s        -6.797742  0.000000 -0.000000 -1.191636  0.000000  0.000000
  0C   5s        -2.298273  0.000000  0.000000  2.552640 -0.000000 -0.000000
  0C   1pz       -0.000000 -0.000000 -0.000000 -0.000000 -0.285662  0.060930
  0C   1px        0.608983 -0.000000 -0.000000 -0.470927  0.000000 -0.000000
  0C   1py        0.000000  1.103232  0.544478  0.000000 -0.000000  0.000000
  0C   2pz        0.000000  0.000000  0.000000  0.000000  0.855453  0.673208
  0C   2px       -6.445586  0.000000  0.000000  3.324315  0.000000  0.000000
  0C   2py       -0.000000 -3.715917 -1.311224 -0.000000  0.000000 -0.000000
  0C   3pz        0.000000 -0.000000 -0.000000 -0.000000 -0.159788  0.227991
  0C   3px       -0.324406  0.000000 -0.000000 -0.290177  0.000000  0.000000
  0C   3py        0.000000  1.940458  0.418067  0.000000 -0.000000  0.000000
  0C   1dz2       0.065423 -0.000000  0.000000  0.021511 -0.000000 -0.000000
  0C   1dxz       0.000000  0.000000  0.000000  0.000000  0.011053 -0.147530
  0C   1dyz       0.000000  0.000000  0.000000  0.000000 -0.000000  0.000000
  0C   1dx2y2    -0.101109  0.000000  0.000000  0.070915 -0.000000 -0.000000
  0C   1dxy       0.000000  0.071868 -0.045290 -0.000000 -0.000000 -0.000000
  0C   2dz2       1.241473 -0.000000  0.000000  0.306792 -0.000000 -0.000000
  0C   2dxz      -0.000000 -0.000000  0.000000 -0.000000 -0.399009  1.063514
  0C   2dyz      -0.000000 -0.000000 -0.000000 -0.000000  0.000000 -0.000000
  0C   2dx2y2    -2.242067  0.000000  0.000000  1.164239  0.000000  0.000000
  0C   2dxy       0.000000  1.177555  0.516063  0.000000  0.000000  0.000000
  0C   1f0        0.000000  0.000000 -0.000000  0.000000  0.144721 -0.013993
  0C   1f+1       0.171046 -0.000000 -0.000000 -0.156245 -0.000000  0.000000
  0C   1f-1       0.000000  0.111564 -0.008300  0.000000 -0.000000 -0.000000
  0C   1f+2       0.000000 -0.000000 -0.000000  0.000000  0.117253 -0.049767
  0C   1f-2       0.000000  0.000000  0.000000  0.000000 -0.000000  0.000000
  0C   1f+3       0.181343 -0.000000  0.000000  0.095498 -0.000000 -0.000000
  0C   1f-3       0.000000  0.054802 -0.025734  0.000000  0.000000 -0.000000
  1O   1s         0.001026 -0.000000  0.000000  0.004051 -0.000000  0.000000
  1O   2s         0.023643 -0.000000  0.000000  0.002561 -0.000000  0.000000
  1O   3s        -0.599510  0.000000 -0.000000  0.180749  0.000000  0.000000
  1O   4s         3.436356 -0.000000 -0.000000 -1.266356 -0.000000 -0.000000
  1O   5s         6.365106 -0.000000 -0.000000 -1.881325 -0.000000 -0.000000
  1O   1pz       -0.000000  0.000000 -0.000000  0.000000 -0.004501 -0.104046
  1O   1px       -0.071208  0.000000 -0.000000  0.063128  0.000000  0.000000
  1O   1py        0.000000  0.019439  0.128838 -0.000000 -0.000000 -0.000000
  1O   2pz        0.000000  0.000000  0.000000 -0.000000  0.057064 -0.059383
  1O   2px       -2.399352  0.000000  0.000000  0.798380  0.000000  0.000000
  1O   2py        0.000000  0.038987 -0.049328 -0.000000 -0.000000  0.000000
  1O   3pz       -0.000000 -0.000000 -0.000000  0.000000 -0.037994 -0.901278
  1O   3px       -2.688152  0.000000  0.000000  0.768959  0.000000  0.000000
  1O   3py       -0.000000 -0.204144 -0.233946  0.000000 -0.000000  0.000000
  1O   1dz2      -0.000475  0.000000 -0.000000 -0.008820  0.000000 -0.000000
  1O   1dxz       0.000000  0.000000 -0.000000 -0.000000  0.005326  0.016368
  1O   1dyz       0.000000  0.000000  0.000000  0.000000 -0.000000  0.000000
  1O   1dx2y2    -0.004039  0.000000  0.000000  0.002188  0.000000 -0.000000
  1O   1dxy       0.000000  0.001894  0.013090 -0.000000  0.000000 -0.000000
  1O   2dz2      -0.841227  0.000000 -0.000000 -0.480955  0.000000 -0.000000
  1O   2dxz       0.000000 -0.000000  0.000000 -0.000000  0.139012  1.251303
  1O   2dyz       0.000000  0.000000  0.000000  0.000000 -0.000000  0.000000
  1O   2dx2y2     0.555225 -0.000000 -0.000000 -0.730546 -0.000000 -0.000000
  1O   2dxy      -0.000000 -0.262363  0.612892 -0.000000  0.000000 -0.000000
  1O   1f0        0.000000 -0.000000  0.000000  0.000000  0.006914  0.008980
  1O   1f+1       0.052617 -0.000000 -0.000000 -0.022959 -0.000000 -0.000000
  1O   1f-1      -0.000000 -0.011426 -0.002235 -0.000000  0.000000 -0.000000
  1O   1f+2      -0.000000  0.000000 -0.000000 -0.000000 -0.001126 -0.013103
  1O   1f-2       0.000000  0.000000 -0.000000 -0.000000  0.000000  0.000000
  1O   1f+3       0.063431 -0.000000 -0.000000 -0.021851 -0.000000 -0.000000
  1O   1f-3      -0.000000 -0.035791  0.004210 -0.000000  0.000000  0.000000
  2H   1s         0.062158 -0.173845  0.040060 -0.219584  0.000000  0.000000
  2H   2s        -0.654003  2.555723  0.779139  1.944649 -0.000000 -0.000000
  2H   3s         0.575828 -1.944461 -0.326058 -1.209444  0.000000  0.000000
  2H   1pz       -0.000000  0.000000  0.000000 -0.000000 -0.738903  0.108244
  2H   1px       -0.173856 -0.021757  0.538933  0.001239  0.000000 -0.000000
  2H   1py        0.069259 -0.427056  0.119532 -0.175149 -0.000000 -0.000000
  3H   1s         0.062158  0.173845 -0.040060 -0.219584  0.000000  0.000000
  3H   2s        -0.654003 -2.555723 -0.779139  1.944649 -0.000000 -0.000000
  3H   3s         0.575828  1.944461  0.326058 -1.209444  0.000000  0.000000
  3H   1pz       -0.000000 -0.000000  0.000000 -0.000000 -0.738903  0.108244
  3H   1px       -0.173856  0.021757 -0.538933  0.001239  0.000000 -0.000000
  3H   1py       -0.069259 -0.427056  0.119532  0.175149  0.000000  0.000000
                     36        37        38        39        40        41   
                   1.83671   1.83989   1.88889   1.99791   2.15082   2.28959
                   0.00000   0.00000   0.00000   0.00000   0.00000   0.00000
                  --------  --------  --------  --------  --------  --------
  0C   1s        -0.004388 -0.000000 -0.000000 -0.029311 -0.000000  0.004653
  0C   2s        -0.045509 -0.000000 -0.000000 -0.085070  0.000000  0.025370
  0C   3s         0.141234  0.000000  0.000000  1.044202  0.000000  0.568697
  0C   4s         2.078033  0.000000 -0.000000 -1.940796 -0.000000 -3.128928
  0C   5s        -0.542736 -0.000000  0.000000  0.259357  0.000000  0.240754
  0C   1pz        0.000000 -0.000000 -0.000000  0.000000 -0.000000 -0.000000
  0C   1px        0.264122  0.000000 -0.000000  0.713081 -0.000000  0.229995
  0C   1py        0.000000 -0.000000 -0.107278 -0.000000 -0.011268 -0.000000
  0C   2pz       -0.000000 -0.000000  0.000000  0.000000  0.000000  0.000000
  0C   2px        0.367512  0.000000  0.000000 -1.735671  0.000000 -1.749479
  0C   2py        0.000000  0.000000 -0.011300 -0.000000  1.191372 -0.000000
  0C   3pz       -0.000000  0.000000  0.000000  0.000000  0.000000  0.000000
  0C   3px        0.388806  0.000000 -0.000000  0.119589 -0.000000 -0.414812
  0C   3py       -0.000000  0.000000  0.573522 -0.000000 -0.859769 -0.000000
  0C   1dz2      -0.102396 -0.000000 -0.000000  0.122929 -0.000000 -0.009338
  0C   1dxz       0.000000  0.000000 -0.000000 -0.000000 -0.000000  0.000000
  0C   1dyz      -0.000000  0.054926 -0.000000 -0.000000 -0.000000 -0.000000
  0C   1dx2y2    -0.122977 -0.000000 -0.000000 -0.130701  0.000000  0.022395
  0C   1dxy       0.000000 -0.000000  0.014591 -0.000000  0.381814 -0.000000
  0C   2dz2      -0.044487 -0.000000 -0.000000  0.243170  0.000000  0.556487
  0C   2dxz      -0.000000 -0.000000  0.000000  0.000000  0.000000  0.000000
  0C   2dyz       0.000000 -0.886612  0.000000  0.000000 -0.000000  0.000000
  0C   2dx2y2    -0.087677 -0.000000  0.000000 -0.098141 -0.000000 -2.091491
  0C   2dxy      -0.000000  0.000000  1.068596 -0.000000 -2.172713  0.000000
  0C   1f0       -0.000000  0.000000  0.000000 -0.000000  0.000000  0.000000
  0C   1f+1       0.139898  0.000000  0.000000 -0.128581  0.000000 -0.144397
  0C   1f-1      -0.000000  0.000000  0.306014 -0.000000  0.297850  0.000000
  0C   1f+2       0.000000  0.000000 -0.000000 -0.000000 -0.000000  0.000000
  0C   1f-2       0.000000 -0.125134  0.000000  0.000000 -0.000000  0.000000
  0C   1f+3      -0.322425 -0.000000  0.000000  0.181243  0.000000  0.388198
  0C   1f-3       0.000000 -0.000000 -0.029662 -0.000000  0.107121 -0.000000
  1O   1s         0.000430  0.000000 -0.000000 -0.003725  0.000000 -0.005866
  1O   2s         0.002595  0.000000  0.000000 -0.004951  0.000000 -0.008139
  1O   3s        -0.005287 -0.000000 -0.000000 -0.141611 -0.000000 -0.240147
  1O   4s         0.134041  0.000000  0.000000  1.137916  0.000000  2.403672
  1O   5s        -1.648435 -0.000000 -0.000000  0.351569 -0.000000  1.343364
  1O   1pz       -0.000000 -0.000000  0.000000 -0.000000  0.000000 -0.000000
  1O   1px        0.262364  0.000000  0.000000  0.326413  0.000000  0.133055
  1O   1py        0.000000 -0.000000 -0.259965  0.000000  0.312329  0.000000
  1O   2pz        0.000000  0.000000 -0.000000  0.000000 -0.000000  0.000000
  1O   2px        0.005921 -0.000000 -0.000000 -0.963628 -0.000000 -1.392114
  1O   2py        0.000000  0.000000  0.150049 -0.000000  0.003307 -0.000000
  1O   3pz        0.000000 -0.000000 -0.000000 -0.000000 -0.000000 -0.000000
  1O   3px        0.907768  0.000000  0.000000  0.162867  0.000000 -0.229558
  1O   3py        0.000000 -0.000000 -0.807616  0.000000  1.015425  0.000000
  1O   1dz2       0.003281  0.000000 -0.000000  0.008988 -0.000000  0.008919
  1O   1dxz      -0.000000 -0.000000  0.000000  0.000000  0.000000  0.000000
  1O   1dyz      -0.000000  0.010844 -0.000000 -0.000000  0.000000 -0.000000
  1O   1dx2y2    -0.007403 -0.000000 -0.000000 -0.015818  0.000000  0.000848
  1O   1dxy      -0.000000  0.000000  0.015704 -0.000000 -0.006383 -0.000000
  1O   2dz2       0.156844  0.000000  0.000000  0.407398  0.000000  0.348948
  1O   2dxz      -0.000000 -0.000000  0.000000  0.000000  0.000000  0.000000
  1O   2dyz      -0.000000  0.625741 -0.000000 -0.000000  0.000000 -0.000000
  1O   2dx2y2    -0.668051 -0.000000 -0.000000 -0.562802  0.000000  0.166873
  1O   2dxy      -0.000000  0.000000  0.891259 -0.000000 -0.591942 -0.000000
  1O   1f0       -0.000000 -0.000000 -0.000000 -0.000000 -0.000000  0.000000
  1O   1f+1      -0.007293 -0.000000  0.000000  0.043078  0.000000  0.050172
  1O   1f-1      -0.000000  0.000000  0.006541 -0.000000 -0.005978  0.000000
  1O   1f+2       0.000000  0.000000  0.000000 -0.000000  0.000000  0.000000
  1O   1f-2      -0.000000  0.019158 -0.000000 -0.000000  0.000000 -0.000000
  1O   1f+3      -0.007813 -0.000000 -0.000000  0.053405 -0.000000  0.000208
  1O   1f-3      -0.000000  0.000000  0.004624  0.000000 -0.064330  0.000000
  2H   1s         0.651363  0.000000 -0.515148 -0.234120 -0.511973 -0.363295
  2H   2s        -1.327835 -0.000000  1.370791  0.401862 -1.039651  0.509600
  2H   3s         0.801390  0.000000 -0.891473 -0.164435  0.434484 -0.341745
  2H   1pz       -0.000000  0.747280 -0.000000 -0.000000  0.000000 -0.000000
  2H   1px       -0.304588 -0.000000 -0.182840  0.372134  0.038832 -0.617205
  2H   1py       -0.082474 -0.000000 -0.345359  0.187180  0.655505 -0.678835
  3H   1s         0.651363  0.000000  0.515148 -0.234120  0.511973 -0.363295
  3H   2s        -1.327835 -0.000000 -1.370791  0.401862  1.039651  0.509600
  3H   3s         0.801390  0.000000  0.891473 -0.164435 -0.434484 -0.341745
  3H   1pz        0.000000 -0.747280  0.000000  0.000000 -0.000000  0.000000
  3H   1px       -0.304588 -0.000000  0.182840  0.372134 -0.038832 -0.617205
  3H   1py        0.082474  0.000000 -0.345359 -0.187180  0.655505  0.678835
                     42        43        44        45        46        47   
                   2.34348   2.37870   2.42114   2.68097   2.72458   2.79937
                   0.00000   0.00000   0.00000   0.00000   0.00000   0.00000
                  --------  --------  --------  --------  --------  --------
  0C   1s         0.000000 -0.000000  0.042716  0.011924 -0.000000  0.007446
  0C   2s        -0.000000 -0.000000  0.128181  0.038989 -0.000000  0.032182
  0C   3s        -0.000000  0.000000  0.101150  0.068729  0.000000  0.548021
  0C   4s         0.000000  0.000000 -3.259341 -2.569018 -0.000000 -3.194329
  0C   5s         0.000000  0.000000  0.229230 -1.654623  0.000000 -0.309977
  0C   1pz       -0.000000  0.008248  0.000000 -0.000000  0.000000  0.000000
  0C   1px       -0.000000 -0.000000  0.098711 -0.078705  0.000000 -0.020159
  0C   1py       -0.303027  0.000000  0.000000 -0.000000 -0.000000 -0.000000
  0C   2pz        0.000000 -0.220709 -0.000000  0.000000 -0.000000  0.000000
  0C   2px        0.000000 -0.000000  2.215501 -0.941441  0.000000 -3.493482
  0C   2py       -2.385916  0.000000  0.000000 -0.000000  0.000000 -0.000000
  0C   3pz        0.000000  0.229868  0.000000 -0.000000  0.000000  0.000000
  0C   3px        0.000000 -0.000000  0.248414 -0.943724 -0.000000 -0.356598
  0C   3py       -0.688499 -0.000000  0.000000  0.000000 -0.000000  0.000000
  0C   1dz2      -0.000000  0.000000 -0.446417 -0.113815 -0.000000 -0.388435
  0C   1dxz       0.000000  0.294997  0.000000  0.000000  0.000000 -0.000000
  0C   1dyz      -0.000000  0.000000 -0.000000  0.000000 -1.159744 -0.000000
  0C   1dx2y2    -0.000000  0.000000 -0.288436  0.099308 -0.000000  0.559536
  0C   1dxy      -0.257802  0.000000  0.000000 -0.000000 -0.000000  0.000000
  0C   2dz2      -0.000000 -0.000000  1.213876  0.501328  0.000000  0.997468
  0C   2dxz      -0.000000 -0.355134 -0.000000 -0.000000 -0.000000  0.000000
  0C   2dyz       0.000000 -0.000000  0.000000 -0.000000  0.694528  0.000000
  0C   2dx2y2     0.000000 -0.000000  1.559424 -0.228591  0.000000 -2.040177
  0C   2dxy       1.400800 -0.000000 -0.000000 -0.000000  0.000000 -0.000000
  0C   1f0        0.000000 -0.044591 -0.000000  0.000000  0.000000 -0.000000
  0C   1f+1       0.000000  0.000000 -0.143896  0.063825 -0.000000  0.578851
  0C   1f-1       0.253628  0.000000 -0.000000 -0.000000 -0.000000  0.000000
  0C   1f+2      -0.000000  0.133572  0.000000 -0.000000 -0.000000  0.000000
  0C   1f-2       0.000000  0.000000  0.000000  0.000000 -0.180928  0.000000
  0C   1f+3      -0.000000 -0.000000  0.437920  0.081868 -0.000000  0.584445
  0C   1f-3      -0.009970 -0.000000 -0.000000 -0.000000  0.000000 -0.000000
  1O   1s         0.000000  0.000000  0.014039 -0.104493 -0.000000  0.054935
  1O   2s         0.000000  0.000000  0.040403 -0.356340 -0.000000  0.180738
  1O   3s        -0.000000 -0.000000 -0.194132  2.466137  0.000000 -1.504263
  1O   4s        -0.000000  0.000000 -0.358113 -3.741860 -0.000000  4.844396
  1O   5s        -0.000000  0.000000 -0.354334  5.355633  0.000000  1.268190
  1O   1pz       -0.000000 -1.134749 -0.000000 -0.000000 -0.000000 -0.000000
  1O   1px       -0.000000  0.000000 -0.144161  0.651105  0.000000  0.479769
  1O   1py        0.591330  0.000000 -0.000000 -0.000000  0.000000 -0.000000
  1O   2pz        0.000000  1.613905  0.000000  0.000000  0.000000 -0.000000
  1O   2px        0.000000 -0.000000  0.385677 -1.343829  0.000000 -2.424986
  1O   2py       -0.955350 -0.000000  0.000000  0.000000 -0.000000  0.000000
  1O   3pz       -0.000000 -0.694531 -0.000000 -0.000000 -0.000000 -0.000000
  1O   3px        0.000000 -0.000000 -0.101891 -0.968288 -0.000000 -0.211252
  1O   3py        0.730406  0.000000 -0.000000 -0.000000  0.000000 -0.000000
  1O   1dz2      -0.000000  0.000000 -0.022617 -0.023438 -0.000000 -0.025033
  1O   1dxz       0.000000 -0.015703 -0.000000  0.000000 -0.000000  0.000000
  1O   1dyz       0.000000 -0.000000 -0.000000  0.000000 -0.009844  0.000000
  1O   1dx2y2     0.000000  0.000000 -0.006978  0.029426 -0.000000  0.049730
  1O   1dxy       0.001180 -0.000000 -0.000000 -0.000000 -0.000000 -0.000000
  1O   2dz2      -0.000000 -0.000000 -0.289117 -0.276256 -0.000000 -0.075657
  1O   2dxz       0.000000 -0.006051  0.000000 -0.000000  0.000000  0.000000
  1O   2dyz      -0.000000 -0.000000 -0.000000 -0.000000  0.008084 -0.000000
  1O   2dx2y2    -0.000000  0.000000 -0.085469  0.322897 -0.000000  0.139821
  1O   2dxy      -0.291136  0.000000 -0.000000 -0.000000  0.000000 -0.000000
  1O   1f0       -0.000000 -0.003111 -0.000000 -0.000000 -0.000000  0.000000
  1O   1f+1      -0.000000  0.000000  0.007509 -0.009722  0.000000  0.014619
  1O   1f-1       0.008489  0.000000 -0.000000  0.000000 -0.000000  0.000000
  1O   1f+2       0.000000  0.006318  0.000000  0.000000  0.000000 -0.000000
  1O   1f-2       0.000000 -0.000000 -0.000000 -0.000000  0.072958  0.000000
  1O   1f+3      -0.000000  0.000000  0.009937  0.003547  0.000000  0.018840
  1O   1f-3       0.044487 -0.000000 -0.000000  0.000000  0.000000  0.000000
[...]
 1 O  dz2             0.0       2.4       0.0       1.0       0.0       0.0
 1 O  dxz             0.0       0.0       0.8       0.0       0.0       0.5
 1 O  dx2y2           0.0       0.5       0.0       1.4       0.0       0.0
 1 O  dxy             7.1       0.0       0.0       0.0       0.0       0.0
 1 O  f0              0.0       0.0       0.0       0.0       0.0       1.7
 1 O  f-1             0.1       0.0       0.0       0.0       0.0       0.0
 1 O  f+2             0.0       0.0       0.0       0.0       0.0       2.5
 1 O  f-2             0.0       0.0       0.0       0.0       1.0       0.0
 1 O  f-3             1.2       0.0       0.0       0.0       0.0       0.0
 2 H  s              13.9       7.2       0.0       0.1       0.0       0.0
 2 H  px              6.3       6.8       0.0       0.2       0.0       0.0
 2 H  py              6.4       7.5       0.0       0.0       0.0       0.0
 3 H  s              13.9       7.2       0.0       0.1       0.0       0.0
 3 H  px              6.3       6.8       0.0       0.2       0.0       0.0
 3 H  py              6.4       7.5       0.0       0.0       0.0       0.0

                     48        49        50        51        52        53   
                   2.87590   2.88756   2.95885   3.06002   3.06370   3.14498
                   0.00000   0.00000   0.00000   0.00000   0.00000   0.00000
                  --------  --------  --------  --------  --------  --------
 0 C  s               0.8       0.0       0.0       0.0       0.0       2.1
 0 C  pz              0.0       0.0       1.3       0.0       0.0       0.0
 0 C  px              0.8       0.0       0.0       0.0       0.0       2.4
 0 C  py              0.0       3.5       0.0       0.0       3.0       0.0
 0 C  dz2            17.7       0.0       0.0       0.0       0.0      22.3
 0 C  dxz             0.0       0.0       1.2       0.0       0.0       0.0
 0 C  dyz             0.0       0.0       0.0       3.3       0.0       0.0
 0 C  dx2y2          36.8       0.0       0.0       0.0       0.0      10.1
 0 C  dxy             0.0       4.5       0.0       0.0      36.5       0.0
 0 C  f0              0.0       0.0      55.1       0.0       0.0       0.0
 0 C  f+1             7.4       0.0       0.0       0.0       0.0      27.0
 0 C  f-1             0.0       0.0       0.0       0.0      36.9       0.0
 0 C  f+2             0.0       0.0      25.6       0.0       0.0       0.0
 0 C  f-2             0.0       0.0       0.0      74.8       0.0       0.0
 0 C  f+3             7.6       0.0       0.0       0.0       0.0       5.8
 0 C  f-3             0.0      10.0       0.0       0.0       5.3       0.0
 1 O  s              16.3       0.0       0.0       0.0       0.0       0.8
 1 O  pz              0.0       0.0       0.3       0.0       0.0       0.0
 1 O  px              9.2       0.0       0.0       0.0       0.0       1.5
 1 O  py              0.0      58.6       0.0       0.0       0.1       0.0
 1 O  dz2             0.2       0.0       0.0       0.0       0.0       0.2
 1 O  dyz             0.0       0.0       0.0       2.3       0.0       0.0
 1 O  dx2y2           0.9       0.0       0.0       0.0       0.0       1.9
 1 O  dxy             0.0       5.0       0.0       0.0       0.6       0.0
 1 O  f0              0.0       0.0       0.6       0.0       0.0       0.0
 1 O  f+1             0.1       0.0       0.0       0.0       0.0       1.3
 1 O  f-1             0.0       0.2       0.0       0.0       1.4       0.0
 1 O  f+2             0.0       0.0       0.4       0.0       0.0       0.0
 1 O  f-2             0.0       0.0       0.0       5.7       0.0       0.0
 1 O  f+3             0.1       0.0       0.0       0.0       0.0       3.8
 1 O  f-3             0.0       1.4       0.0       0.0       2.1       0.0
 2 H  s               0.4       1.6       0.0       0.0       3.8       4.7
 2 H  pz              0.0       0.0       7.7       6.9       0.0       0.0
 2 H  px              0.1       6.7       0.0       0.0       0.1       1.4
 2 H  py              0.6       0.0       0.0       0.0       3.1       4.3
 3 H  s               0.4       1.6       0.0       0.0       3.8       4.7
 3 H  pz              0.0       0.0       7.7       6.9       0.0       0.0
 3 H  px              0.1       6.7       0.0       0.0       0.1       1.4
 3 H  py              0.6       0.0       0.0       0.0       3.1       4.3

                     54        55        56        57        58        59   
                   3.45521   3.58423   3.60866   3.85904   3.95420   4.25528
                   0.00000   0.00000   0.00000   0.00000   0.00000   0.00000
                  --------  --------  --------  --------  --------  --------
 0 C  s               0.0       1.4       0.0       0.0      18.3       2.4
 0 C  pz              2.9       0.0       0.0       0.0       0.0       0.0
 0 C  px              0.0      12.0       0.0       0.0       1.4       4.3
 0 C  py              0.0       0.0       0.5      17.6       0.0       0.0
 0 C  dz2             0.0       3.7       0.0       0.0      15.0       4.0
 0 C  dxz             7.1       0.0       0.0       0.0       0.0       0.0
 0 C  dx2y2           0.0      20.9       0.0       0.0       3.7       4.1
 0 C  dxy             0.0       0.0       4.3      24.0       0.0       0.0
 0 C  f0             16.3       0.0       0.0       0.0       0.0       0.0
 0 C  f+1             0.0      25.6       0.0       0.0       0.0       0.0
 0 C  f-1             0.0       0.0       0.0      16.5       0.0       0.0
 0 C  f+2            29.2       0.0       0.0       0.0       0.0       0.0
 0 C  f+3             0.0       8.3       0.0       0.0       7.8      26.4
 0 C  f-3             0.0       0.0      56.6       3.8       0.0       0.0
 1 O  s               0.0       8.1       0.0       0.0       9.6      12.1
 1 O  pz             15.5       0.0       0.0       0.0       0.0       0.0
 1 O  px              0.0       6.0       0.0       0.0      14.0      12.7
 1 O  py              0.0       0.0       9.1       0.1       0.0       0.0
 1 O  dz2             0.0       1.3       0.0       0.0       0.6       0.4
 1 O  dxz             9.9       0.0       0.0       0.0       0.0       0.0
 1 O  dx2y2           0.0       1.9       0.0       0.0       3.3       1.9
 1 O  dxy             0.0       0.0       6.2       0.1       0.0       0.0
 1 O  f0              7.1       0.0       0.0       0.0       0.0       0.0
 1 O  f+1             0.0       0.0       0.0       0.0       3.3      16.1
 1 O  f-1             0.0       0.0       0.6       0.9       0.0       0.0
 1 O  f+2            12.0       0.0       0.0       0.0       0.0       0.0
 1 O  f+3             0.0       0.7       0.0       0.0      16.7       0.2
 1 O  f-3             0.0       0.0      18.4       1.3       0.0       0.0
 2 H  s               0.0       1.3       0.2      10.0       2.3       6.3
 2 H  px              0.0       1.3       2.0       1.0       0.4       0.6
 2 H  py              0.0       2.4       0.0       6.8       0.5       0.8
 3 H  s               0.0       1.3       0.2      10.0       2.3       6.3
 3 H  px              0.0       1.3       2.0       1.0       0.4       0.6
 3 H  py              0.0       2.4       0.0       6.8       0.5       0.8

                     60        61        62        63        64        65   
                   5.03300   5.04478   5.35334   5.49310   5.89453   6.07540
                   0.00000   0.00000   0.00000   0.00000   0.00000   0.00000
                  --------  --------  --------  --------  --------  --------
 0 C  s               0.0       0.0       0.0       0.8       0.0       0.0
 0 C  pz              0.0       0.0       0.0       0.0       0.9       0.0
 0 C  px              0.0       0.0       0.0       0.8       0.0       0.0
 0 C  py              0.0       0.3       0.0       0.0       0.0       0.7
 0 C  dxz             0.0       0.0       0.0       0.0       7.5       0.0
 0 C  dyz             0.0       0.0       0.6       0.0       0.0       0.0
 0 C  dxy             0.0       0.1       0.0       0.0       0.0       8.9
 0 C  f0              0.6       0.0       0.0       0.0       1.6       0.0
 0 C  f+1             0.0       0.0       0.0       4.5       0.0       0.0
 0 C  f-1             0.0       1.2       0.0       0.0       0.0       0.2
 0 C  f+2             0.3       0.0       0.0       0.0       2.6       0.0
 0 C  f-2             0.0       0.0       6.0       0.0       0.0       0.0
 0 C  f+3             0.0       0.0       0.0       6.7       0.0       0.0
 0 C  f-3             0.0       0.0       0.0       0.0       0.0       7.4
 1 O  s               0.0       0.0       0.0       0.4       0.0       0.0
 1 O  pz              0.0       0.0       0.0       0.0       2.3       0.0
 1 O  px              0.0       0.0       0.0       0.3       0.0       0.0
 1 O  py              0.0       0.0       0.0       0.0       0.0       2.5
 1 O  dz2             0.0       0.0       0.0       3.1       0.0       0.0
 1 O  dxz             0.0       0.0       0.0       0.0      33.1       0.0
 1 O  dyz             0.0       0.0       3.2       0.0       0.0       0.0
 1 O  dx2y2           0.0       0.0       0.0       0.2       0.0       0.0
 1 O  dxy             0.0       0.0       0.0       0.0       0.0      25.1
 1 O  f0             62.1       0.0       0.0       0.0      19.3       0.0
 1 O  f+1             0.0       0.0       0.0      50.0       0.0       0.0
 1 O  f-1             0.0      92.7       0.0       0.0       0.0       2.9
 1 O  f+2            36.9       0.0       0.0       0.0      32.6       0.0
 1 O  f-2             0.0       0.0      89.9       0.0       0.0       0.0
 1 O  f+3             0.0       0.0       0.0      30.4       0.0       0.0
 1 O  f-3             0.0       5.0       0.0       0.0       0.0      51.5
 2 H  s               0.0       0.2       0.0       1.3       0.0       0.0
 2 H  pz              0.1       0.0       0.1       0.0       0.0       0.0
 2 H  px              0.0       0.0       0.0       0.0       0.0       0.4
 2 H  py              0.0       0.0       0.0       0.2       0.0       0.0
 3 H  s               0.0       0.2       0.0       1.3       0.0       0.0
 3 H  pz              0.1       0.0       0.1       0.0       0.0       0.0
 3 H  px              0.0       0.0       0.0       0.0       0.0       0.4
 3 H  py              0.0       0.0       0.0       0.2       0.0       0.0

                     66        67        68        69        70        71   
                   6.13670   6.15242   6.21410   6.60906   6.64282   6.86143
                   0.00000   0.00000   0.00000   0.00000   0.00000   0.00000
                  --------  --------  --------  --------  --------  --------
 0 C  s               4.9       0.0       0.1       0.0       0.0       3.4
 0 C  pz              0.0       0.0       0.0       1.7       0.0       0.0
 0 C  px              5.0       0.0       0.1       0.0       0.0       2.3
 0 C  py              0.0       0.0       0.0       0.0       1.1       0.0
 0 C  dz2             1.8       0.0       0.2       0.0       0.0       0.1
 0 C  dxz             0.0       0.0       0.0       2.8       0.0       0.0
 0 C  dyz             0.0       0.2       0.0       0.0       0.0       0.0
 0 C  dx2y2           4.4       0.0       0.3       0.0       0.0       0.4
 0 C  dxy             0.0       0.0       0.0       0.0       2.8       0.0
 0 C  f0              0.0       0.0       0.0       0.1       0.0       0.0
 0 C  f+1             0.0       0.0       0.1       0.0       0.0       0.5
 0 C  f+2             0.0       0.0       0.0       0.2       0.0       0.0
 0 C  f-2             0.0       0.2       0.0       0.0       0.0       0.0
 0 C  f+3             0.3       0.0       0.0       0.0       0.0       1.3
 1 O  s               4.7       0.0       0.1       0.0       0.0       2.0
 1 O  pz              0.0       0.0       0.0       1.9       0.0       0.0
 1 O  px              5.9       0.0       0.0       0.0       0.0       3.0
 1 O  py              0.0       0.0       0.0       0.0       1.7       0.0
 1 O  dz2             4.5       0.0      71.8       0.0       0.0      18.8
 1 O  dxz             0.0       0.0       0.0      69.8       0.0       0.0
 1 O  dyz             0.0      96.9       0.0       0.0       0.0       0.0
 1 O  dx2y2          18.1       0.0      23.9       0.0       0.0      54.4
 1 O  dxy             0.0       0.0       0.0       0.0      75.4       0.0
 1 O  f0              0.0       0.0       0.0       8.7       0.0       0.0
 1 O  f+1            16.7       0.0       1.5       0.0       0.0       5.8
 1 O  f-1             0.0       0.0       0.0       0.0       1.1       0.0
 1 O  f+2             0.0       0.0       0.0      14.8       0.0       0.0
 1 O  f-2             0.0       2.7       0.0       0.0       0.0       0.0
 1 O  f+3            33.6       0.0       1.4       0.0       0.0       8.0
 1 O  f-3             0.0       0.0       0.0       0.0      17.7       0.0
 2 H  s               0.1       0.0       0.2       0.0       0.0       0.0
 3 H  s               0.1       0.0       0.2       0.0       0.0       0.0

                     72        73   
                  22.07159  43.08196
                   0.00000   0.00000
                  --------  --------
 0 C  s              97.7       0.0
 0 C  px              0.1       0.0
 0 C  dz2             0.1       0.0
 1 O  s               0.7      99.9
 1 O  px              0.6       0.0
 2 H  s               0.2       0.0
 3 H  s               0.2       0.0


                      *****************************
                      * MAYER POPULATION ANALYSIS *
                      *****************************

  NA   - Mulliken gross atomic population
  ZA   - Total nuclear charge
  QA   - Mulliken gross atomic charge
  VA   - Mayer's total valence
  BVA  - Mayer's bonded valence
  FA   - Mayer's free valence

  ATOM       NA         ZA         QA         VA         BVA        FA
  0 C      5.9441     6.0000     0.0559     3.9224     3.9224    -0.0000
  1 O      8.2143     8.0000    -0.2143     2.1709     2.1709    -0.0000
  2 H      0.9208     1.0000     0.0792     0.9326     0.9326    -0.0000
  3 H      0.9208     1.0000     0.0792     0.9326     0.9326    -0.0000

  Mayer bond orders larger than 0.100000
B(  0-C ,  1-O ) :   2.1137 B(  0-C ,  2-H ) :   0.9044 B(  0-C ,  3-H ) :   0.9044 


-------
TIMINGS
-------

Total SCF time: 0 days 0 hours 0 min 0 sec 

Total time                  ....       0.853 sec
Sum of individual times     ....       0.777 sec  ( 91.1%)

Fock matrix formation       ....       0.623 sec  ( 72.9%)
  Split-RI-J                ....       0.091 sec  ( 14.7% of F)
  XC integration            ....       0.537 sec  ( 86.3% of F)
    Basis function eval.    ....       0.134 sec  ( 24.9% of XC)
    Density eval.           ....       0.161 sec  ( 30.0% of XC)
    XC-Functional eval.     ....       0.082 sec  ( 15.2% of XC)
    XC-Potential eval.      ....       0.134 sec  ( 25.0% of XC)
Diagonalization             ....       0.001 sec  (  0.1%)
Density matrix formation    ....       0.000 sec  (  0.0%)
Population analysis         ....       0.048 sec  (  5.7%)
Initial guess               ....       0.005 sec  (  0.6%)
Orbital Transformation      ....       0.000 sec  (  0.0%)
Orbital Orthonormalization  ....       0.001 sec  (  0.1%)
DIIS solution               ....       0.000 sec  (  0.0%)
SOSCF solution              ....       0.002 sec  (  0.2%)
Grid generation             ....       0.098 sec  ( 11.4%)

Maximum memory used throughout the entire SCF-calculation: 16.0 MB

-------------------------   --------------------
FINAL SINGLE POINT ENERGY      -114.554488568925
-------------------------   --------------------

                                *** OPTIMIZATION RUN DONE ***

                            ***************************************
                            *     ORCA property calculations      *
                            ***************************************

                                    ---------------------
                                    Active property flags
                                    ---------------------
   (+) Dipole Moment


------------------------------------------------------------------------------
                       ORCA ELECTRIC PROPERTIES CALCULATION
------------------------------------------------------------------------------

Dipole Moment Calculation                       ... on
Quadrupole Moment Calculation                   ... off
Polarizability Calculation                      ... off
GBWName                                         ... h2co_bp86_def2-tzvp.gbw
Electron density                                ... h2co_bp86_def2-tzvp.scfp
SHARK General Contraction Test:  Segmented basis detected
   -> Pre-screening matrix found on disk - Trying to read with NShells=30
   -> Passing Pre-screening matrix on to SHARK ...ok
   -> Leaving CheckPreScreeningMatrix
----------------------
SHARK INTEGRAL PACKAGE
----------------------

Number of atoms                             ...      4
Number of basis functions                   ...     74
Number of shells                            ...     30
Maximum angular momentum                    ...      3
Integral batch strategy                     ... SHARK/LIBINT Hybrid
RI-J (if used) integral strategy            ... SPLIT-RIJ (Revised 2003 algorithm where possible)
Printlevel                                  ...      2
Contraction scheme used                     ... SEGMENTED contraction
Coulomb Range Separation                    ... NOT USED
Exchange Range Separation                   ... NOT USED
Finite Nucleus Model                        ... NOT USED
Auxiliary Coulomb fitting basis             ... AVAILABLE
   # of basis functions in Aux-J            ...    120
   # of shells in Aux-J                     ...     40
   Maximum angular momentum in Aux-J        ...      4
Auxiliary J/K fitting basis                 ... NOT available
Auxiliary Correlation fitting basis         ... NOT available
Auxiliary 'external' fitting basis          ... NOT available
Integral threshold                          ...     2.500000e-11
Primitive cut-off                           ...     2.500000e-12
Primitive pair pre-selection threshold      ...     2.500000e-12

The origin for moment calculation is the CENTER OF MASS  = ( 1.145684, -0.000000  0.000000)

-------------
DIPOLE MOMENT
-------------
                                X             Y             Z
Electronic contribution:      1.37630      -0.00000       0.00000
Nuclear contribution   :     -2.23979       0.00000      -0.00000
                        -----------------------------------------
Total Dipole Moment    :     -0.86350       0.00000       0.00000
                        -----------------------------------------
Magnitude (a.u.)       :      0.86350
Magnitude (Debye)      :      2.19484



--------------------
Rotational spectrum 
--------------------
 
Rotational constants in cm-1:     9.310385     1.284434     1.128719 
Rotational constants in MHz : 279118.327219 38506.365935 33838.151374 

 Dipole components along the rotational axes: 
x,y,z [a.u.] :     0.863497    -0.000000     0.000000 
x,y,z [Debye]:     2.194835    -0.000000     0.000000 

 

Timings for individual modules:

Sum of individual times         ...        8.056 sec (=   0.134 min)
GTO integral calculation        ...        0.540 sec (=   0.009 min)   6.7 %
SCF iterations                  ...        5.296 sec (=   0.088 min)  65.7 %
SCF Gradient evaluation         ...        2.119 sec (=   0.035 min)  26.3 %
Geometry relaxation             ...        0.101 sec (=   0.002 min)   1.3 %
                             ****ORCA TERMINATED NORMALLY****
TOTAL RUN TIME: 0 days 0 hours 0 minutes 8 seconds 367 msec
