
                                 *****************
                                 * O   R   C   A *
                                 *****************

                                            #,                                       
                                            ###                                      
                                            ####                                     
                                            #####                                    
                                            ######                                   
                                           ########,                                 
                                     ,,################,,,,,                         
                               ,,#################################,,                 
                          ,,##########################################,,             
                       ,#########################################, ''#####,          
                    ,#############################################,,   '####,        
                  ,##################################################,,,,####,       
                ,###########''''           ''''###############################       
              ,#####''   ,,,,##########,,,,          '''####'''          '####       
            ,##' ,,,,###########################,,,                        '##       
           ' ,,###''''                  '''############,,,                           
         ,,##''                                '''############,,,,        ,,,,,,###''
      ,#''                                            '''#######################'''  
     '                                                          ''''####''''         
             ,#######,   #######,   ,#######,      ##                                
            ,#'     '#,  ##    ##  ,#'     '#,    #''#        ######   ,####,        
            ##       ##  ##   ,#'  ##            #'  '#       #        #'  '#        
            ##       ##  #######   ##           ,######,      #####,   #    #        
            '#,     ,#'  ##    ##  '#,     ,#' ,#      #,         ##   #,  ,#        
             '#######'   ##     ##  '#######'  #'      '#     #####' # '####'        



                  #######################################################
                  #                        -***-                        #
                  #          Department of theory and spectroscopy      #
                  #    Directorship and core code : Frank Neese         #
                  #        Max Planck Institute fuer Kohlenforschung    #
                  #                Kaiser Wilhelm Platz 1               #
                  #                 D-45470 Muelheim/Ruhr               #
                  #                      Germany                        #
                  #                                                     #
                  #                  All rights reserved                #
                  #                        -***-                        #
                  #######################################################


                         Program Version 5.0.4 -  RELEASE  -


 With contributions from (in alphabetic order):
   Daniel Aravena         : Magnetic Suceptibility
   Michael Atanasov       : Ab Initio Ligand Field Theory (pilot matlab implementation)
   Alexander A. Auer      : GIAO ZORA, VPT2 properties, NMR spectrum
   Ute Becker             : Parallelization
   Giovanni Bistoni       : ED, misc. LED, open-shell LED, HFLD
   Martin Brehm           : Molecular dynamics
   Dmytro Bykov           : SCF Hessian
   Vijay G. Chilkuri      : MRCI spin determinant printing, contributions to CSF-ICE
   Dipayan Datta          : RHF DLPNO-CCSD density
   Achintya Kumar Dutta   : EOM-CC, STEOM-CC
   Dmitry Ganyushin       : Spin-Orbit,Spin-Spin,Magnetic field MRCI
   Miquel Garcia          : C-PCM and meta-GGA Hessian, CC/C-PCM, Gaussian charge scheme
   Yang Guo               : DLPNO-NEVPT2, F12-NEVPT2, CIM, IAO-localization
   Andreas Hansen         : Spin unrestricted coupled pair/coupled cluster methods
   Benjamin Helmich-Paris : MC-RPA, TRAH-SCF, COSX integrals
   Lee Huntington         : MR-EOM, pCC
   Robert Izsak           : Overlap fitted RIJCOSX, COSX-SCS-MP3, EOM
   Marcus Kettner         : VPT2
   Christian Kollmar      : KDIIS, OOCD, Brueckner-CCSD(T), CCSD density, CASPT2, CASPT2-K
   Simone Kossmann        : Meta GGA functionals, TD-DFT gradient, OOMP2, MP2 Hessian
   Martin Krupicka        : Initial AUTO-CI
   Lucas Lang             : DCDCAS
   Marvin Lechner         : AUTO-CI (C++ implementation), FIC-MRCC
   Dagmar Lenk            : GEPOL surface, SMD
   Dimitrios Liakos       : Extrapolation schemes; Compound Job, initial MDCI parallelization
   Dimitrios Manganas     : Further ROCIS development; embedding schemes
   Dimitrios Pantazis     : SARC Basis sets
   Anastasios Papadopoulos: AUTO-CI, single reference methods and gradients
   Taras Petrenko         : DFT Hessian,TD-DFT gradient, ASA, ECA, R-Raman, ABS, FL, XAS/XES, NRVS
   Peter Pinski           : DLPNO-MP2, DLPNO-MP2 Gradient
   Christoph Reimann      : Effective Core Potentials
   Marius Retegan         : Local ZFS, SOC
   Christoph Riplinger    : Optimizer, TS searches, QM/MM, DLPNO-CCSD(T), (RO)-DLPNO pert. Triples
   Tobias Risthaus        : Range-separated hybrids, TD-DFT gradient, RPA, STAB
   Michael Roemelt        : Original ROCIS implementation
   Masaaki Saitow         : Open-shell DLPNO-CCSD energy and density
   Barbara Sandhoefer     : DKH picture change effects
   Avijit Sen             : IP-ROCIS
   Kantharuban Sivalingam : CASSCF convergence, NEVPT2, FIC-MRCI
   Bernardo de Souza      : ESD, SOC TD-DFT
   Georgi Stoychev        : AutoAux, RI-MP2 NMR, DLPNO-MP2 response
   Willem Van den Heuvel  : Paramagnetic NMR
   Boris Wezisla          : Elementary symmetry handling
   Frank Wennmohs         : Technical directorship


 We gratefully acknowledge several colleagues who have allowed us to
 interface, adapt or use parts of their codes:
   Stefan Grimme, W. Hujo, H. Kruse, P. Pracht,  : VdW corrections, initial TS optimization,
                  C. Bannwarth, S. Ehlert          DFT functionals, gCP, sTDA/sTD-DF
   Ed Valeev, F. Pavosevic, A. Kumar             : LibInt (2-el integral package), F12 methods
   Garnet Chan, S. Sharma, J. Yang, R. Olivares  : DMRG
   Ulf Ekstrom                                   : XCFun DFT Library
   Mihaly Kallay                                 : mrcc  (arbitrary order and MRCC methods)
   Jiri Pittner, Ondrej Demel                    : Mk-CCSD
   Frank Weinhold                                : gennbo (NPA and NBO analysis)
   Christopher J. Cramer and Donald G. Truhlar   : smd solvation model
   Lars Goerigk                                  : TD-DFT with DH, B97 family of functionals
   V. Asgeirsson, H. Jonsson                     : NEB implementation
   FAccTs GmbH                                   : IRC, NEB, NEB-TS, DLPNO-Multilevel, CI-OPT
                                                   MM, QMMM, 2- and 3-layer-ONIOM, Crystal-QMMM,
                                                   LR-CPCM, SF, NACMEs, symmetry and pop. for TD-DFT,
                                                   nearIR, NL-DFT gradient (VV10), updates on ESD,
                                                   ML-optimized integration grids
   S Lehtola, MJT Oliveira, MAL Marques          : LibXC Library
   Liviu Ungur et al                             : ANISO software


 Your calculation uses the libint2 library for the computation of 2-el integrals
 For citations please refer to: http://libint.valeyev.net

 Your ORCA version has been built with support for libXC version: 5.1.0
 For citations please refer to: https://tddft.org/programs/libxc/

 This ORCA versions uses:
   CBLAS   interface :  Fast vector & matrix operations
   LAPACKE interface :  Fast linear algebra routines
   SCALAPACK package :  Parallel linear algebra routines
   Shared memory     :  Shared parallel matrices
   BLAS/LAPACK       :  OpenBLAS 0.3.15  USE64BITINT DYNAMIC_ARCH NO_AFFINITY Haswell SINGLE_THREADED
        Core in use  :  Haswell
   Copyright (c) 2011-2014, The OpenBLAS Project


================================================================================

----- Orbital basis set information -----
Your calculation utilizes the basis: def2-TZVP
   F. Weigend and R. Ahlrichs, Phys. Chem. Chem. Phys. 7, 3297 (2005).

----- AuxJ basis set information -----
Your calculation utilizes the auxiliary basis: def2/J
   F. Weigend, Phys. Chem. Chem. Phys. 8, 1057 (2006).

================================================================================
                                        WARNINGS
                       Please study these warnings very carefully!
================================================================================


INFO   : the flag for use of the SHARK integral package has been found!

================================================================================
                                       INPUT FILE
================================================================================
NAME = h2co_bp86_def2-tzvp.inp
|  1> ! PAL2
|  2> ! Freq BP86 Def2-TZVP Def2/J DefGrid2
|  3> ! TightSCF
|  4> ! LargePrint
|  5> 
|  6> %MaxCore 1000
|  7> 
|  8> * xyz 0 1
|  9>   C        0.002215        0.000000        0.000000
| 10>   O        1.210770       -0.000000       -0.000000
| 11>   H       -0.592190        0.947697       -0.000000
| 12>   H       -0.592190       -0.947697       -0.000000
| 13> **                         ****END OF INPUT****
================================================================================

                       ****************************
                       * Single Point Calculation *
                       ****************************

---------------------------------
CARTESIAN COORDINATES (ANGSTROEM)
---------------------------------
  C      0.002215    0.000000    0.000000
  O      1.210770   -0.000000   -0.000000
  H     -0.592190    0.947697   -0.000000
  H     -0.592190   -0.947697   -0.000000

----------------------------
CARTESIAN COORDINATES (A.U.)
----------------------------
  NO LB      ZA    FRAG     MASS         X           Y           Z
   0 C     6.0000    0    12.011    0.004186    0.000000    0.000000
   1 O     8.0000    0    15.999    2.288024   -0.000000   -0.000000
   2 H     1.0000    0     1.008   -1.119077    1.790888   -0.000000
   3 H     1.0000    0     1.008   -1.119077   -1.790888   -0.000000

--------------------------------
INTERNAL COORDINATES (ANGSTROEM)
--------------------------------
 C      0   0   0     0.000000000000     0.00000000     0.00000000
 O      1   0   0     1.208555000000     0.00000000     0.00000000
 H      1   2   0     1.118680878461   122.09634647     0.00000000
 H      1   2   3     1.118680878461   122.09634647   180.00000000

---------------------------
INTERNAL COORDINATES (A.U.)
---------------------------
 C      0   0   0     0.000000000000     0.00000000     0.00000000
 O      1   0   0     2.283837967781     0.00000000     0.00000000
 H      1   2   0     2.114000491546   122.09634647     0.00000000
 H      1   2   3     2.114000491546   122.09634647   180.00000000

---------------------
BASIS SET INFORMATION
---------------------
There are 3 groups of distinct atoms

 Group   1 Type C   : 11s6p2d1f contracted to 5s3p2d1f pattern {62111/411/11/1}
 Group   2 Type O   : 11s6p2d1f contracted to 5s3p2d1f pattern {62111/411/11/1}
 Group   3 Type H   : 5s1p contracted to 3s1p pattern {311/1}

Atom   0C    basis set group =>   1
Atom   1O    basis set group =>   2
Atom   2H    basis set group =>   3
Atom   3H    basis set group =>   3

-------------------------
BASIS SET IN INPUT FORMAT
-------------------------

 # Basis set for element : H 
 NewGTO H 
 S 3 
   1      34.0613410000      0.0254393072
   2       5.1235746000      0.1900859489
   3       1.1646626000      0.8524411301
 S 1 
   1       0.3272304100      1.0000000000
 S 1 
   1       0.1030724100      1.0000000000
 P 1 
   1       0.8000000000      1.0000000000
  end;

 # Basis set for element : C 
 NewGTO C 
 S 6 
   1   13575.3496820000      0.0006064549
   2    2035.2333680000      0.0046979088
   3     463.2256235900      0.0243324776
   4     131.2001959800      0.0973999683
   5      42.8530158910      0.3019558425
   6      15.5841857660      0.6623360915
 S 2 
   1       6.2067138508      0.6559530854
   2       2.5764896527      0.3758563329
 S 1 
   1       0.5769633942      1.0000000000
 S 1 
   1       0.2297283136      1.0000000000
 S 1 
   1       0.0951644400      1.0000000000
 P 4 
   1      34.6972322440      0.0113272200
   2       7.9582622826      0.0761696592
   3       2.3780826883      0.3019225220
   4       0.8143320818      0.7278502735
 P 1 
   1       0.2888754725      1.0000000000
 P 1 
   1       0.1005682367      1.0000000000
 D 1 
   1       1.0970000000      1.0000000000
 D 1 
   1       0.3180000000      1.0000000000
 F 1 
   1       0.7610000000      1.0000000000
  end;

 # Basis set for element : O 
 NewGTO O 
 S 6 
   1   27032.3826310000      0.0005722733
   2    4052.3871392000      0.0044353233
   3     922.3272271000      0.0230201076
   4     261.2407098900      0.0928224906
   5      85.3546413510      0.2937850002
   6      31.0350352450      0.6740160450
 S 2 
   1      12.2608607280      0.6383993702
   2       4.9987076005      0.3953458713
 S 1 
   1       1.1703108158      1.0000000000
 S 1 
   1       0.4647474099      1.0000000000
 S 1 
   1       0.1850453636      1.0000000000
 P 4 
   1      63.2749548010      0.0120183321
   2      14.6270493790      0.0830054217
   3       4.4501223456      0.3199174393
   4       1.5275799647      0.7071554292
 P 1 
   1       0.5293511794      1.0000000000
 P 1 
   1       0.1747842127      1.0000000000
 D 1 
   1       2.3140000000      1.0000000000
 D 1 
   1       0.6450000000      1.0000000000
 F 1 
   1       1.4280000000      1.0000000000
  end;

---------------------------------
AUXILIARY/J BASIS SET INFORMATION
---------------------------------
There are 3 groups of distinct atoms

 Group   1 Type C   : 12s5p4d2f1g contracted to 6s4p3d1f1g pattern {711111/2111/211/2/1}
 Group   2 Type O   : 12s5p4d2f1g contracted to 6s4p3d1f1g pattern {711111/2111/211/2/1}
 Group   3 Type H   : 5s2p1d contracted to 3s1p1d pattern {311/2/1}

Atom   0C    basis set group =>   1
Atom   1O    basis set group =>   2
Atom   2H    basis set group =>   3
Atom   3H    basis set group =>   3

-------------------------------------
AUXILIARY/J BASIS SET IN INPUT FORMAT
-------------------------------------

 # Auxiliary/J basis set for element : H 
 NewAuxJGTO H 
 S 3 
   1      15.6752927000      0.1007184237
   2       3.6063578000      0.3404257499
   3       1.2080016000      0.6491996172
 S 1 
   1       0.4726794000      1.0000000000
 S 1 
   1       0.2018100000      1.0000000000
 P 2 
   1       2.0281365000      0.5596620919
   2       0.5358730000      0.5596620919
 D 1 
   1       2.2165124000      1.0000000000
  end;

 # Auxiliary/J basis set for element : C 
 NewAuxJGTO C 
 S 7 
   1    1861.0916331000      0.0134602335
   2     642.9939764000      0.0299160374
   3     235.1105725000      0.1008649584
   4      90.7028894000      0.2370970548
   5      36.7794552000      0.3924037254
   6      15.6046273000      0.3195862154
   7       6.8907294000      0.0530104441
 S 1 
   1       3.1478850000     -1.0000000000
 S 1 
   1       1.4777287000      1.0000000000
 S 1 
   1       0.7076466000      1.0000000000
 S 1 
   1       0.3430122000      1.0000000000
 S 1 
   1       0.1669453000      1.0000000000
 P 2 
   1      13.5472892000     -0.6769313712
   2       5.4669419000     -0.3779500978
 P 1 
   1       2.1751721000      1.0000000000
 P 1 
   1       0.8582194000      1.0000000000
 P 1 
   1       0.3376720000      1.0000000000
 D 2 
   1       5.9287253000     -0.3533329857
   2       1.9809209000     -0.7456525731
 D 1 
   1       0.8055417000     -1.0000000000
 D 1 
   1       0.3531244000     -1.0000000000
 F 2 
   1       1.6755626000      0.6311076882
   2       0.5997536000      0.4968166032
 G 1 
   1       1.0024600000     -1.0000000000
  end;

 # Auxiliary/J basis set for element : O 
 NewAuxJGTO O 
 S 7 
   1    2876.8216605000      0.0168151159
   2    1004.7443032000      0.0340137548
   3     369.7579954000      0.1194951309
   4     142.9442404000      0.2664627624
   5      57.8366425000      0.4202764046
   6      24.3864983000      0.2765077335
   7      10.6622662000      0.0057008815
 S 1 
   1       4.8070437000     -1.0000000000
 S 1 
   1       2.2210770000      1.0000000000
 S 1 
   1       1.0447795000      1.0000000000
 S 1 
   1       0.4968425000      1.0000000000
 S 1 
   1       0.2371384000      1.0000000000
 P 2 
   1      64.2613382000     -0.2731534179
   2      16.3006076000     -0.8168011598
 P 1 
   1       4.3550542000      1.0000000000
 P 1 
   1       1.2019554000      1.0000000000
 P 1 
   1       0.3354196000      1.0000000000
 D 2 
   1       9.2146611000     -0.4661230638
   2       2.8435251000     -0.6600908911
 D 1 
   1       0.9955759000     -1.0000000000
 D 1 
   1       0.3649441000     -1.0000000000
 F 2 
   1       2.6420115000      0.5931563945
   2       0.7345613000      0.5931563945
 G 1 
   1       1.3931000000     -1.0000000000
  end;



           ************************************************************
           *        Program running with 2 parallel MPI-processes     *
           *              working on a common directory               *
           ************************************************************
------------------------------------------------------------------------------
                           ORCA GTO INTEGRAL CALCULATION
                           -- RI-GTO INTEGRALS CHOSEN --
------------------------------------------------------------------------------
------------------------------------------------------------------------------
                   ___                                                        
                  /   \      - P O W E R E D   B Y -                         
                 /     \                                                     
                 |  |  |   _    _      __       _____    __    __             
                 |  |  |  | |  | |    /  \     |  _  \  |  |  /  |          
                  \  \/   | |  | |   /    \    | | | |  |  | /  /          
                 / \  \   | |__| |  /  /\  \   | |_| |  |  |/  /          
                |  |  |   |  __  | /  /__\  \  |    /   |      \           
                |  |  |   | |  | | |   __   |  |    \   |  |\   \          
                \     /   | |  | | |  |  |  |  | |\  \  |  | \   \       
                 \___/    |_|  |_| |__|  |__|  |_| \__\ |__|  \__/        
                                                                              
                      - O R C A' S   B I G   F R I E N D -                    
                                      &                                       
                       - I N T E G R A L  F E E D E R -                       
                                                                              
 v1 FN, 2020, v2 2021                                                         
------------------------------------------------------------------------------


Reading SHARK input file h2co_bp86_def2-tzvp.SHARKINP.tmp ... SHARK General Contraction Test:  Segmented basis detected
   -> Pre-screening matrix *NOT* found on disk - recalculating with NShells=30
   -> Leaving CheckPreScreeningMatrix
ok
----------------------
SHARK INTEGRAL PACKAGE
----------------------

Number of atoms                             ...      4
Number of basis functions                   ...     74
Number of shells                            ...     30
Maximum angular momentum                    ...      3
Integral batch strategy                     ... SHARK/LIBINT Hybrid
RI-J (if used) integral strategy            ... SPLIT-RIJ (Revised 2003 algorithm where possible)
Printlevel                                  ...      2
Contraction scheme used                     ... SEGMENTED contraction
Coulomb Range Separation                    ... NOT USED
Exchange Range Separation                   ... NOT USED
Finite Nucleus Model                        ... NOT USED
Auxiliary Coulomb fitting basis             ... AVAILABLE
   # of basis functions in Aux-J            ...    120
   # of shells in Aux-J                     ...     40
   Maximum angular momentum in Aux-J        ...      4
Auxiliary J/K fitting basis                 ... NOT available
Auxiliary Correlation fitting basis         ... NOT available
Auxiliary 'external' fitting basis          ... NOT available
Integral threshold                          ...     2.500000e-11
Primitive cut-off                           ...     2.500000e-12
Primitive pair pre-selection threshold      ...     2.500000e-12

Calculating pre-screening integrals         ... done (  0.1 sec) Dimension = 30
Organizing shell pair data                  ... done (  0.0 sec)
Shell pair information
Total number of shell pairs                 ...       465
Shell pairs after pre-screening             ...       464
Total number of primitive shell pairs       ...      1428
Primitive shell pairs kept                  ...      1288
          la=0 lb=0:    135 shell pairs
          la=1 lb=0:    128 shell pairs
          la=1 lb=1:     36 shell pairs
          la=2 lb=0:     64 shell pairs
          la=2 lb=1:     32 shell pairs
          la=2 lb=2:     10 shell pairs
          la=3 lb=0:     32 shell pairs
          la=3 lb=1:     16 shell pairs
          la=3 lb=2:      8 shell pairs
          la=3 lb=3:      3 shell pairs

Calculating one electron integrals          ... done (  0.0 sec)
Calculating RI/J V-Matrix + Cholesky decomp.... done (  0.0 sec)
Calculating Nuclear repulsion               ... done (  0.0 sec) ENN=     31.129695266304 Eh

SHARK setup successfully completed in   0.3 seconds

Maximum memory used throughout the entire GTOINT-calculation: 14.1 MB


           ************************************************************
           *        Program running with 2 parallel MPI-processes     *
           *              working on a common directory               *
           ************************************************************
-------------------------------------------------------------------------------
                                 ORCA SCF
-------------------------------------------------------------------------------

------------
SCF SETTINGS
------------
Hamiltonian:
 Density Functional     Method          .... DFT(GTOs)
 Exchange Functional    Exchange        .... B88
   X-Alpha parameter    XAlpha          ....  0.666667
   Becke's b parameter  XBeta           ....  0.004200
 Correlation Functional Correlation     .... P86
 LDA part of GGA corr.  LDAOpt          .... PW91-LDA
 Gradients option       PostSCFGGA      .... off
   Density functional embedding theory  .... OFF
   NL short-range parameter             ....  4.400000
 RI-approximation to the Coulomb term is turned on
   Number of AuxJ basis functions       .... 120


General Settings:
 Integral files         IntName         .... h2co_bp86_def2-tzvp
 Hartree-Fock type      HFTyp           .... RHF
 Total Charge           Charge          ....    0
 Multiplicity           Mult            ....    1
 Number of Electrons    NEL             ....   16
 Basis Dimension        Dim             ....   74
 Nuclear Repulsion      ENuc            ....     31.1296952663 Eh

Convergence Acceleration:
 DIIS                   CNVDIIS         .... on
   Start iteration      DIISMaxIt       ....    12
   Startup error        DIISStart       ....  0.200000
   # of expansion vecs  DIISMaxEq       ....     5
   Bias factor          DIISBfac        ....   1.050
   Max. coefficient     DIISMaxC        ....  10.000
 Trust-Rad. Augm. Hess. CNVTRAH         .... auto
   Auto Start mean grad. ratio tolernc. ....  1.125000
   Auto Start start iteration           ....    20
   Auto Start num. interpolation iter.  ....    10
   Max. Number of Micro iterations      ....    16
   Max. Number of Macro iterations      .... Maxiter - #DIIS iter
   Number of Davidson start vectors     ....     2
   Converg. threshold I  (grad. norm)   ....   1.000e-05
   Converg. threshold II (energy diff.) ....   1.000e-08
   Grad. Scal. Fac. for Micro threshold ....   0.100
   Minimum threshold for Micro iter.    ....   0.010
   NR start threshold (gradient norm)   ....   0.001
   Initial trust radius                 ....   0.400
   Minimum AH scaling param. (alpha)    ....   1.000
   Maximum AH scaling param. (alpha)    .... 1000.000
   Orbital update algorithm             .... Taylor
   White noise on init. David. guess    .... on
   Maximum white noise                  ....   0.010
   Quad. conv. algorithm                .... NR
 SOSCF                  CNVSOSCF        .... on
   Start iteration      SOSCFMaxIt      ....   150
   Startup grad/error   SOSCFStart      ....  0.003300
 Level Shifting         CNVShift        .... on
   Level shift para.    LevelShift      ....    0.2500
   Turn off err/grad.   ShiftErr        ....    0.0010
 Zerner damping         CNVZerner       .... off
 Static damping         CNVDamp         .... on
   Fraction old density DampFac         ....    0.7000
   Max. Damping (<1)    DampMax         ....    0.9800
   Min. Damping (>=0)   DampMin         ....    0.0000
   Turn off err/grad.   DampErr         ....    0.1000
 Fernandez-Rico         CNVRico         .... off

SCF Procedure:
 Maximum # iterations   MaxIter         ....   125
 SCF integral mode      SCFMode         .... Direct
   Integral package                     .... SHARK and LIBINT hybrid scheme
 Reset frequency        DirectResetFreq ....    20
 Integral Threshold     Thresh          ....  2.500e-11 Eh
 Primitive CutOff       TCut            ....  2.500e-12 Eh

Convergence Tolerance:
 Convergence Check Mode ConvCheckMode   .... Total+1el-Energy
 Convergence forced     ConvForced      .... 0
 Energy Change          TolE            ....  1.000e-08 Eh
 1-El. energy change                    ....  1.000e-05 Eh
 Orbital Gradient       TolG            ....  1.000e-05
 Orbital Rotation angle TolX            ....  1.000e-05
 DIIS Error             TolErr          ....  5.000e-07


Diagonalization of the overlap matrix:
Smallest eigenvalue                        ... 1.476e-03
Time for diagonalization                   ...    0.006 sec
Threshold for overlap eigenvalues          ... 1.000e-08
Number of eigenvalues below threshold      ... 0
Time for construction of square roots      ...    0.001 sec
Total time needed                          ...    0.008 sec

SHARK General Contraction Test:  Segmented basis detected
   -> Pre-screening matrix found on disk - Trying to read with NShells=30
   -> Passing Pre-screening matrix on to SHARK ...ok
   -> Leaving CheckPreScreeningMatrix
----------------------
SHARK INTEGRAL PACKAGE
----------------------

Number of atoms                             ...      4
Number of basis functions                   ...     74
Number of shells                            ...     30
Maximum angular momentum                    ...      3
Integral batch strategy                     ... SHARK/LIBINT Hybrid
RI-J (if used) integral strategy            ... SPLIT-RIJ (Revised 2003 algorithm where possible)
Printlevel                                  ...      2
Contraction scheme used                     ... SEGMENTED contraction
Coulomb Range Separation                    ... NOT USED
Exchange Range Separation                   ... NOT USED
Finite Nucleus Model                        ... NOT USED
Auxiliary Coulomb fitting basis             ... AVAILABLE
   # of basis functions in Aux-J            ...    120
   # of shells in Aux-J                     ...     40
   Maximum angular momentum in Aux-J        ...      4
Auxiliary J/K fitting basis                 ... NOT available
Auxiliary Correlation fitting basis         ... NOT available
Auxiliary 'external' fitting basis          ... NOT available
Integral threshold                          ...     2.500000e-11
Primitive cut-off                           ...     2.500000e-12
Primitive pair pre-selection threshold      ...     2.500000e-12

Time for model grid setup =    0.032 sec

------------------------------
INITIAL GUESS: MODEL POTENTIAL
------------------------------
Loading Hartree-Fock densities                     ... done
Calculating cut-offs                               ... done
Initializing the effective Hamiltonian             ... done
Setting up the integral package (SHARK)            ... done
Starting the Coulomb interaction                   ...     -> Generating integrals - 
    -> L=0 0 :     0.007 sec done=      4309 skipped=         8 prim-skipped=         0
    -> L=1 0 :     0.006 sec done=      4096 skipped=         0 prim-skipped=         0
    -> L=1 1 :     0.003 sec done=      1152 skipped=         0 prim-skipped=         0
    -> L=2 0 :     0.005 sec done=      2048 skipped=         0 prim-skipped=         0
    -> L=2 1 :     0.005 sec done=      1024 skipped=         0 prim-skipped=         0
    -> L=2 2 :     0.002 sec done=       320 skipped=         0 prim-skipped=         0
    -> L=3 0 :     0.003 sec done=      1024 skipped=         0 prim-skipped=         0
    -> L=3 1 :     0.003 sec done=       512 skipped=         0 prim-skipped=         0
    -> L=3 2 :     0.004 sec done=       256 skipped=         0 prim-skipped=         0
    -> L=3 3 :     0.002 sec done=        96 skipped=         0 prim-skipped=         0
done (   0.0 sec)
Reading the grid                                   ... done
Mapping shells                                     ... done
Starting the XC term evaluation                    ... done (   0.0 sec)
  promolecular density results
     # of electrons  =     15.999121125
     EX              =    -13.877513906
     EC              =     -0.563784764
     EX+EC           =    -14.441298671
Transforming the Hamiltonian                       ... done (   0.0 sec)
Diagonalizing the Hamiltonian                      ... done (   0.0 sec)
Back transforming the eigenvectors                 ... done (   0.0 sec)
Now organizing SCF variables                       ... done
                      ------------------
                      INITIAL GUESS DONE (   0.1 sec)
                      ------------------
----------------------
INITIAL GUESS ORBITALS
----------------------
                      0         1         2         3         4         5   
                 -18.98370 -10.08474  -1.10331  -0.65392  -0.53175  -0.52629
                   2.00000   2.00000   2.00000   2.00000   2.00000   2.00000
                  --------  --------  --------  --------  --------  --------
  0C   1s         0.000026  0.467655  0.053033 -0.085554  0.000000 -0.002449
  0C   2s        -0.000155  0.606788  0.109984 -0.181821  0.000000 -0.004511
  0C   3s         0.000938  0.038021 -0.180508  0.311179  0.000000 -0.002396
  0C   4s         0.002867 -0.007860 -0.110357  0.345191 -0.000000  0.042600
  0C   5s        -0.003512  0.011715 -0.002646  0.061435  0.000000  0.060604
  0C   1pz       -0.000000 -0.000000 -0.000000 -0.000000 -0.000000  0.000000
  0C   1px        0.000789  0.002503 -0.144644 -0.111191  0.000000 -0.290794
  0C   1py       -0.000000  0.000000  0.000000  0.000000  0.319229  0.000000
  0C   2pz        0.000000  0.000000  0.000000  0.000000  0.000000  0.000000
  0C   2px        0.005881  0.007976 -0.046139 -0.061487 -0.000000 -0.165863
  0C   2py        0.000000 -0.000000 -0.000000 -0.000000  0.215544  0.000000
  0C   3pz       -0.000000 -0.000000 -0.000000 -0.000000 -0.000000  0.000000
  0C   3px       -0.002137 -0.001739 -0.001397 -0.020587 -0.000000 -0.023941
  0C   3py       -0.000000 -0.000000  0.000000  0.000000  0.057959  0.000000
  0C   1dz2      -0.000223 -0.002215  0.012801 -0.008662  0.000000  0.004754
  0C   1dxz       0.000000  0.000000  0.000000 -0.000000  0.000000  0.000000
  0C   1dyz       0.000000  0.000000  0.000000 -0.000000  0.000000  0.000000
  0C   1dx2y2     0.000348  0.001878 -0.018106 -0.004655  0.000000 -0.018941
  0C   1dxy      -0.000000  0.000000  0.000000  0.000000  0.002663  0.000000
  0C   2dz2      -0.000434 -0.002866  0.008475 -0.009338  0.000000 -0.000538
  0C   2dxz       0.000000  0.000000 -0.000000  0.000000  0.000000 -0.000000
  0C   2dyz      -0.000000 -0.000000 -0.000000 -0.000000 -0.000000 -0.000000
  0C   2dx2y2     0.002513  0.002833 -0.004324  0.002153 -0.000000  0.001458
  0C   2dxy      -0.000000  0.000000  0.000000  0.000000  0.019240  0.000000
  0C   1f0       -0.000000 -0.000000 -0.000000 -0.000000 -0.000000  0.000000
  0C   1f+1      -0.000094 -0.000698  0.004787  0.000915  0.000000  0.006300
  0C   1f-1      -0.000000  0.000000  0.000000  0.000000 -0.005090 -0.000000
  0C   1f+2       0.000000  0.000000  0.000000  0.000000  0.000000 -0.000000
  0C   1f-2       0.000000 -0.000000 -0.000000  0.000000 -0.000000 -0.000000
  0C   1f+3       0.000457 -0.002636  0.008270 -0.005569  0.000000  0.004743
  0C   1f-3      -0.000000 -0.000000  0.000000  0.000000 -0.005190 -0.000000
  1O   1s         0.435898 -0.000059  0.094587  0.044544  0.000000 -0.031675
  1O   2s         0.638417 -0.000240  0.221275  0.105310  0.000000 -0.074614
  1O   3s         0.036987  0.003344 -0.335721 -0.164945 -0.000000  0.111297
  1O   4s        -0.027378 -0.012229 -0.407510 -0.244069 -0.000000  0.183666
  1O   5s         0.009665 -0.004343 -0.110779 -0.143742  0.000000  0.156991
  1O   1pz        0.000000 -0.000000  0.000000 -0.000000 -0.000000  0.000000
  1O   1px       -0.001884 -0.000708  0.132128 -0.151044 -0.000000  0.396703
  1O   1py        0.000000  0.000000 -0.000000 -0.000000  0.281912  0.000000
  1O   2pz       -0.000000  0.000000 -0.000000 -0.000000 -0.000000  0.000000
  1O   2px        0.004835  0.009535  0.091037 -0.102593 -0.000000  0.287295
  1O   2py       -0.000000 -0.000000  0.000000  0.000000  0.221959  0.000000
  1O   3pz        0.000000 -0.000000  0.000000  0.000000  0.000000  0.000000
  1O   3px       -0.000899  0.000665  0.009537 -0.036459 -0.000000  0.122631
  1O   3py        0.000000  0.000000 -0.000000 -0.000000  0.089711  0.000000
  1O   1dz2      -0.000179  0.000024  0.003961 -0.001756 -0.000000  0.004877
  1O   1dxz      -0.000000 -0.000000 -0.000000 -0.000000 -0.000000  0.000000
  1O   1dyz      -0.000000 -0.000000 -0.000000  0.000000 -0.000000  0.000000
  1O   1dx2y2     0.000373 -0.000018 -0.006733  0.002958  0.000000 -0.008384
  1O   1dxy      -0.000000  0.000000  0.000000 -0.000000 -0.007979 -0.000000
  1O   2dz2       0.000598  0.001895  0.007400 -0.003558 -0.000000  0.005748
  1O   2dxz       0.000000  0.000000  0.000000  0.000000  0.000000 -0.000000
  1O   2dyz       0.000000  0.000000  0.000000 -0.000000  0.000000 -0.000000
  1O   2dx2y2    -0.001212 -0.003490 -0.012982  0.004135  0.000000 -0.012132
  1O   2dxy       0.000000  0.000000  0.000000 -0.000000 -0.020024 -0.000000
  1O   1f0        0.000000  0.000000  0.000000  0.000000  0.000000 -0.000000
  1O   1f+1      -0.000139 -0.000473 -0.002196  0.001093  0.000000 -0.001953
  1O   1f-1       0.000000 -0.000000 -0.000000 -0.000000 -0.001375 -0.000000
  1O   1f+2      -0.000000 -0.000000 -0.000000 -0.000000 -0.000000  0.000000
  1O   1f-2       0.000000  0.000000  0.000000  0.000000 -0.000000  0.000000
  1O   1f+3      -0.000147 -0.000781 -0.002665  0.000699  0.000000 -0.002990
  1O   1f-3       0.000000 -0.000000 -0.000000 -0.000000 -0.005186 -0.000000
  2H   1s         0.000286 -0.000704 -0.010642  0.103345  0.107802  0.071266
  2H   2s         0.001290 -0.001320 -0.004915  0.117566  0.144761  0.094681
  2H   3s        -0.000114 -0.003053 -0.001088  0.014454  0.025815  0.018292
  2H   1pz        0.000000  0.000000 -0.000000  0.000000  0.000000 -0.000000
  2H   1px        0.000241 -0.001219 -0.001811  0.007230  0.013630  0.001395
  2H   1py       -0.000210  0.001998  0.000261 -0.015413 -0.010552 -0.011949
  3H   1s         0.000286 -0.000704 -0.010642  0.103345 -0.107802  0.071266
  3H   2s         0.001290 -0.001320 -0.004915  0.117566 -0.144761  0.094681
  3H   3s        -0.000114 -0.003053 -0.001088  0.014454 -0.025815  0.018292
  3H   1pz       -0.000000 -0.000000 -0.000000  0.000000  0.000000 -0.000000
  3H   1px        0.000241 -0.001219 -0.001811  0.007230 -0.013630  0.001395
  3H   1py        0.000210 -0.001998 -0.000261  0.015413 -0.010552  0.011949
                      6         7         8         9        10        11   
                  -0.46383  -0.34036  -0.16314   0.00989   0.06048   0.06628
                   2.00000   2.00000   0.00000   0.00000   0.00000   0.00000
                  --------  --------  --------  --------  --------  --------
  0C   1s         0.000000 -0.000000 -0.000000 -0.056526 -0.017598  0.000000
  0C   2s         0.000000 -0.000000 -0.000000 -0.122676 -0.039696  0.000000
  0C   3s         0.000000  0.000000 -0.000000  0.232745  0.006893  0.000000
  0C   4s        -0.000000 -0.000000  0.000000  0.509293  0.653611 -0.000000
  0C   5s        -0.000000  0.000000  0.000000  1.641835  1.607874 -0.000000
  0C   1pz       -0.233698  0.000000 -0.420144 -0.000000  0.000000  0.000000
  0C   1px       -0.000000 -0.000000 -0.000000 -0.167808  0.061080 -0.000000
  0C   1py       -0.000000  0.170912  0.000000 -0.000000  0.000000  0.350292
  0C   2pz       -0.182733  0.000000 -0.416492 -0.000000  0.000000 -0.000000
  0C   2px       -0.000000 -0.000000  0.000000 -0.128752  0.432485 -0.000000
  0C   2py       -0.000000  0.118733  0.000000 -0.000000  0.000000  0.308137
  0C   3pz       -0.055496 -0.000000 -0.351189  0.000000 -0.000000  0.000000
  0C   3px       -0.000000 -0.000000  0.000000 -0.633486  1.557571 -0.000000
  0C   3py        0.000000  0.021852 -0.000000 -0.000000  0.000000  1.034275
  0C   1dz2       0.000000  0.000000 -0.000000  0.010867  0.015136 -0.000000
  0C   1dxz      -0.019072  0.000000  0.013323 -0.000000  0.000000  0.000000
  0C   1dyz       0.000000  0.000000 -0.000000 -0.000000  0.000000 -0.000000
  0C   1dx2y2    -0.000000 -0.000000  0.000000  0.007200 -0.023405  0.000000
  0C   1dxy      -0.000000 -0.031891 -0.000000 -0.000000  0.000000  0.008848
  0C   2dz2       0.000000  0.000000 -0.000000  0.032491 -0.037877  0.000000
  0C   2dxz      -0.023965  0.000000  0.037149 -0.000000 -0.000000 -0.000000
  0C   2dyz      -0.000000 -0.000000  0.000000  0.000000 -0.000000  0.000000
  0C   2dx2y2    -0.000000 -0.000000  0.000000  0.039773  0.056603 -0.000000
  0C   2dxy       0.000000 -0.033144 -0.000000  0.000000  0.000000  0.131468
  0C   1f0        0.008529 -0.000000  0.004473  0.000000  0.000000  0.000000
  0C   1f+1       0.000000  0.000000 -0.000000 -0.003004 -0.009107  0.000000
  0C   1f-1       0.000000 -0.000199 -0.000000  0.000000 -0.000000  0.008412
  0C   1f+2      -0.005739  0.000000  0.004326 -0.000000 -0.000000 -0.000000
  0C   1f-2       0.000000 -0.000000 -0.000000 -0.000000 -0.000000  0.000000
  0C   1f+3       0.000000  0.000000 -0.000000  0.005733 -0.006581  0.000000
  0C   1f-3      -0.000000  0.006516  0.000000  0.000000  0.000000  0.000332
  1O   1s        -0.000000 -0.000000 -0.000000  0.000038  0.038111 -0.000000
  1O   2s        -0.000000 -0.000000 -0.000000 -0.000408  0.095165 -0.000000
  1O   3s        -0.000000  0.000000  0.000000  0.009122 -0.199808  0.000000
  1O   4s         0.000000 -0.000000 -0.000000 -0.053479 -0.125945  0.000000
  1O   5s         0.000000  0.000000 -0.000000  0.139320 -2.120283  0.000000
  1O   1pz       -0.433689  0.000000  0.307389  0.000000  0.000000 -0.000000
  1O   1px        0.000000  0.000000 -0.000000  0.055139  0.086562 -0.000000
  1O   1py       -0.000000 -0.425786 -0.000000  0.000000 -0.000000 -0.093319
  1O   2pz       -0.347199 -0.000000  0.243376  0.000000  0.000000  0.000000
  1O   2px       -0.000000 -0.000000  0.000000  0.058807  0.192505 -0.000000
  1O   2py       -0.000000 -0.345525  0.000000  0.000000 -0.000000 -0.074942
  1O   3pz       -0.164517  0.000000  0.277549 -0.000000 -0.000000 -0.000000
  1O   3px       -0.000000 -0.000000  0.000000  0.007910  0.657097 -0.000000
  1O   3py       -0.000000 -0.218940  0.000000  0.000000 -0.000000 -0.301675
  1O   1dz2       0.000000  0.000000 -0.000000  0.001015 -0.001626  0.000000
  1O   1dxz       0.008810 -0.000000  0.004625  0.000000 -0.000000  0.000000
  1O   1dyz      -0.000000 -0.000000  0.000000  0.000000  0.000000  0.000000
  1O   1dx2y2    -0.000000 -0.000000  0.000000  0.000823  0.002805 -0.000000
  1O   1dxy      -0.000000  0.002534  0.000000  0.000000 -0.000000 -0.008300
  1O   2dz2      -0.000000 -0.000000  0.000000  0.000277  0.027803 -0.000000
  1O   2dxz       0.022862  0.000000  0.015413 -0.000000 -0.000000 -0.000000
  1O   2dyz       0.000000  0.000000 -0.000000 -0.000000 -0.000000  0.000000
  1O   2dx2y2     0.000000  0.000000 -0.000000  0.010510 -0.048120  0.000000
  1O   2dxy       0.000000  0.005646 -0.000000  0.000000 -0.000000 -0.007833
  1O   1f0        0.003600  0.000000  0.000748 -0.000000 -0.000000 -0.000000
  1O   1f+1       0.000000  0.000000 -0.000000 -0.000444 -0.002760  0.000000
  1O   1f-1       0.000000  0.000539 -0.000000  0.000000  0.000000 -0.000741
  1O   1f+2      -0.004627 -0.000000 -0.001054  0.000000  0.000000  0.000000
  1O   1f-2       0.000000 -0.000000  0.000000 -0.000000 -0.000000 -0.000000
  1O   1f+3       0.000000  0.000000 -0.000000  0.000719 -0.003172  0.000000
  1O   1f-3       0.000000  0.002103 -0.000000 -0.000000 -0.000000 -0.002552
  2H   1s         0.000000  0.120711 -0.000000 -0.068254 -0.021668 -0.037739
  2H   2s        -0.000000  0.198449  0.000000 -0.045016 -0.046742  0.132596
  2H   3s         0.000000  0.115922 -0.000000 -1.542369  0.001605 -1.872024
  2H   1pz       -0.007066  0.000000 -0.023827 -0.000000 -0.000000 -0.000000
  2H   1px       -0.000000  0.006931  0.000000  0.014280  0.027351  0.031683
  2H   1py       -0.000000 -0.009577  0.000000 -0.035155  0.010047 -0.043195
  3H   1s        -0.000000 -0.120711  0.000000 -0.068254 -0.021668  0.037739
  3H   2s        -0.000000 -0.198449  0.000000 -0.045016 -0.046742 -0.132596
  3H   3s         0.000000 -0.115922 -0.000000 -1.542369  0.001605  1.872024
  3H   1pz       -0.007066  0.000000 -0.023827  0.000000 -0.000000 -0.000000
  3H   1px       -0.000000 -0.006931  0.000000  0.014280  0.027351 -0.031683
  3H   1py       -0.000000 -0.009577  0.000000  0.035155 -0.010047 -0.043195
                     12        13        14        15        16        17   
                   0.17023   0.17259   0.21300   0.31791   0.33281   0.35176
                   0.00000   0.00000   0.00000   0.00000   0.00000   0.00000
                  --------  --------  --------  --------  --------  --------
  0C   1s        -0.000000  0.013167 -0.000000 -0.000575 -0.073739  0.000000
  0C   2s         0.000000  0.018989  0.000000 -0.002931 -0.159377  0.000000
  0C   3s        -0.000000  0.142140  0.000000 -0.308573  0.128579 -0.000000
  0C   4s         0.000000 -1.240931 -0.000000  2.754745  2.207984 -0.000000
  0C   5s         0.000000  4.443445  0.000000  0.458918 -4.056071 -0.000000
  0C   1pz       -0.296725 -0.000000  0.000000  0.000000 -0.000000 -0.000000
  0C   1px       -0.000000 -0.008157 -0.000000 -0.016086  0.204184 -0.000000
  0C   1py        0.000000 -0.000000 -0.022641  0.000000  0.000000  0.330667
  0C   2pz       -0.685748 -0.000000  0.000000  0.000000 -0.000000  0.000000
  0C   2px        0.000000  0.127661 -0.000000  1.365767  0.017000 -0.000000
  0C   2py        0.000000 -0.000000 -0.250342  0.000000  0.000000  1.116499
  0C   3pz        1.308466  0.000000  0.000000 -0.000000  0.000000  0.000000
  0C   3px        0.000000 -1.391324 -0.000000  0.405230  0.012439  0.000000
  0C   3py        0.000000 -0.000000  3.310500 -0.000000 -0.000000 -1.560897
  0C   1dz2       0.000000  0.027630  0.000000 -0.039148  0.012627 -0.000000
  0C   1dxz      -0.010129 -0.000000 -0.000000 -0.000000  0.000000 -0.000000
  0C   1dyz       0.000000 -0.000000 -0.000000 -0.000000  0.000000 -0.000000
  0C   1dx2y2    -0.000000  0.020364 -0.000000  0.056380 -0.013027  0.000000
  0C   1dxy      -0.000000 -0.000000  0.018360  0.000000  0.000000  0.026120
  0C   2dz2      -0.000000  0.063105  0.000000 -0.358492  0.123545 -0.000000
  0C   2dxz      -0.034843 -0.000000 -0.000000  0.000000 -0.000000 -0.000000
  0C   2dyz      -0.000000  0.000000  0.000000  0.000000 -0.000000  0.000000
  0C   2dx2y2     0.000000  0.067125 -0.000000  0.622404 -0.304468  0.000000
  0C   2dxy      -0.000000  0.000000 -0.091424 -0.000000 -0.000000 -0.060336
  0C   1f0        0.012219  0.000000  0.000000 -0.000000  0.000000  0.000000
  0C   1f+1      -0.000000  0.000916  0.000000 -0.052845  0.021998  0.000000
  0C   1f-1      -0.000000  0.000000  0.000237 -0.000000 -0.000000 -0.033315
  0C   1f+2      -0.008327 -0.000000 -0.000000  0.000000 -0.000000 -0.000000
  0C   1f-2       0.000000 -0.000000  0.000000 -0.000000 -0.000000  0.000000
  0C   1f+3       0.000000  0.013025  0.000000 -0.073017 -0.016032 -0.000000
  0C   1f-3       0.000000 -0.000000  0.015970 -0.000000 -0.000000 -0.008685
  1O   1s         0.000000  0.006571  0.000000  0.012070  0.026199 -0.000000
  1O   2s        -0.000000  0.015629  0.000000  0.021931  0.062921 -0.000000
  1O   3s         0.000000 -0.027680 -0.000000  0.113571 -0.100348  0.000000
  1O   4s        -0.000000 -0.040279  0.000000 -0.892432 -0.226718  0.000000
  1O   5s        -0.000000 -0.132689  0.000000 -2.164020  0.631514 -0.000000
  1O   1pz       -0.030014  0.000000  0.000000 -0.000000  0.000000  0.000000
  1O   1px       -0.000000 -0.038195  0.000000 -0.276490  0.243038 -0.000000
  1O   1py       -0.000000  0.000000 -0.208705 -0.000000 -0.000000 -0.063803
  1O   2pz        0.005033  0.000000  0.000000 -0.000000  0.000000  0.000000
  1O   2px        0.000000 -0.076341 -0.000000  0.126510  0.131442 -0.000000
  1O   2py       -0.000000  0.000000 -0.154358 -0.000000 -0.000000 -0.055493
  1O   3pz       -0.061700 -0.000000 -0.000000  0.000000 -0.000000 -0.000000
  1O   3px        0.000000  0.205987 -0.000000  2.286302  0.447298 -0.000000
  1O   3py       -0.000000  0.000000 -0.325144 -0.000000 -0.000000 -0.171022
  1O   1dz2      -0.000000  0.000142  0.000000 -0.011201 -0.007717  0.000000
  1O   1dxz       0.008417  0.000000  0.000000 -0.000000  0.000000 -0.000000
  1O   1dyz      -0.000000 -0.000000  0.000000 -0.000000  0.000000  0.000000
  1O   1dx2y2     0.000000  0.001054 -0.000000  0.019730  0.011327 -0.000000
  1O   1dxy      -0.000000 -0.000000  0.002374 -0.000000 -0.000000 -0.013550
  1O   2dz2       0.000000  0.030498 -0.000000  0.085553 -0.028530  0.000000
  1O   2dxz       0.005799 -0.000000 -0.000000  0.000000 -0.000000 -0.000000
  1O   2dyz       0.000000  0.000000  0.000000  0.000000 -0.000000  0.000000
  1O   2dx2y2    -0.000000 -0.004043  0.000000 -0.154703  0.053341 -0.000000
  1O   2dxy      -0.000000  0.000000 -0.023794 -0.000000 -0.000000 -0.040347
  1O   1f0        0.000204 -0.000000 -0.000000  0.000000 -0.000000 -0.000000
  1O   1f+1      -0.000000 -0.003014  0.000000 -0.006256  0.000252  0.000000
  1O   1f-1       0.000000  0.000000  0.000002  0.000000 -0.000000  0.000516
  1O   1f+2      -0.000331  0.000000  0.000000 -0.000000  0.000000  0.000000
  1O   1f-2      -0.000000 -0.000000 -0.000000  0.000000 -0.000000  0.000000
  1O   1f+3      -0.000000  0.000226  0.000000 -0.008994 -0.000183 -0.000000
  1O   1f-3      -0.000000 -0.000000 -0.001416 -0.000000  0.000000 -0.000884
  2H   1s        -0.000000 -0.073289 -0.044452  0.022523 -0.089489 -0.120309
  2H   2s         0.000000 -0.426174 -0.417452  0.112686 -0.880628 -1.327463
  2H   3s         0.000000 -1.513948 -2.109569 -0.011726  1.913290  2.376405
  2H   1pz        0.009868  0.000000  0.000000  0.000000 -0.000000  0.000000
  2H   1px        0.000000 -0.012115  0.023595 -0.012802 -0.024621 -0.011258
  2H   1py        0.000000 -0.027512  0.018203 -0.001033  0.035710  0.066766
  3H   1s         0.000000 -0.073289  0.044452  0.022523 -0.089489  0.120309
  3H   2s         0.000000 -0.426174  0.417452  0.112686 -0.880628  1.327463
  3H   3s         0.000000 -1.513948  2.109569 -0.011726  1.913290 -2.376405
  3H   1pz        0.009868  0.000000  0.000000  0.000000  0.000000  0.000000
  3H   1px        0.000000 -0.012115 -0.023595 -0.012802 -0.024621  0.011258
  3H   1py        0.000000  0.027512  0.018203  0.001033 -0.035710  0.066766
                     18        19        20        21        22        23   
                   0.36440   0.41768   0.49622   0.51290   0.62122   0.70114
                   0.00000   0.00000   0.00000   0.00000   0.00000   0.00000
                  --------  --------  --------  --------  --------  --------
  0C   1s         0.010197  0.000000  0.000000 -0.000000  0.009579 -0.000000
  0C   2s         0.020136  0.000000  0.000000 -0.000000  0.024997 -0.000000
  0C   3s         0.082590 -0.000000 -0.000000  0.000000  0.028424  0.000000
  0C   4s        -0.780999 -0.000000  0.000000 -0.000000 -2.115777 -0.000000
  0C   5s         3.590140  0.000000  0.000000 -0.000000 -2.479052 -0.000000
  0C   1pz        0.000000 -0.093999 -0.000000 -0.000000 -0.000000  0.053371
  0C   1px        0.423036  0.000000 -0.000000 -0.000000 -0.042172 -0.000000
  0C   1py        0.000000 -0.000000  0.000000 -0.167752  0.000000  0.000000
  0C   2pz       -0.000000  0.079740  0.000000  0.000000 -0.000000  0.062665
  0C   2px        1.026221  0.000000 -0.000000 -0.000000 -1.627069 -0.000000
  0C   2py        0.000000 -0.000000  0.000000 -0.290819  0.000000  0.000000
  0C   3pz       -0.000000  0.776446  0.000000  0.000000  0.000000  0.537619
  0C   3px       -1.814979 -0.000000  0.000000  0.000000 -1.831734 -0.000000
  0C   3py       -0.000000  0.000000  0.000000  3.585483  0.000000 -0.000000
  0C   1dz2       0.002858 -0.000000 -0.000000  0.000000  0.019146 -0.000000
  0C   1dxz       0.000000 -0.006581 -0.000000  0.000000 -0.000000  0.009730
  0C   1dyz       0.000000 -0.000000  0.002792  0.000000 -0.000000  0.000000
  0C   1dx2y2    -0.015777  0.000000 -0.000000 -0.000000 -0.033807 -0.000000
  0C   1dxy       0.000000 -0.000000 -0.000000 -0.007938 -0.000000 -0.000000
  0C   2dz2       0.101023 -0.000000 -0.000000  0.000000 -0.168399  0.000000
  0C   2dxz      -0.000000  0.106937  0.000000  0.000000 -0.000000  1.236889
  0C   2dyz      -0.000000  0.000000 -0.933984  0.000000  0.000000  0.000000
  0C   2dx2y2    -0.224601  0.000000  0.000000 -0.000000 -0.665538 -0.000000
  0C   2dxy      -0.000000 -0.000000  0.000000  0.506321  0.000000  0.000000
  0C   1f0       -0.000000 -0.009262 -0.000000  0.000000  0.000000 -0.012953
  0C   1f+1      -0.014263 -0.000000  0.000000  0.000000  0.048762  0.000000
  0C   1f-1      -0.000000 -0.000000  0.000000  0.014844  0.000000  0.000000
  0C   1f+2       0.000000  0.017033  0.000000  0.000000 -0.000000  0.025634
  0C   1f-2       0.000000 -0.000000  0.001380 -0.000000  0.000000  0.000000
  0C   1f+3       0.027185 -0.000000 -0.000000  0.000000  0.015282  0.000000
  0C   1f-3      -0.000000  0.000000 -0.000000 -0.017139 -0.000000 -0.000000
  1O   1s         0.019291  0.000000 -0.000000 -0.000000  0.046969  0.000000
  1O   2s         0.045225 -0.000000 -0.000000  0.000000  0.100412  0.000000
  1O   3s        -0.052262  0.000000  0.000000 -0.000000  0.022600 -0.000000
  1O   4s        -0.258328 -0.000000  0.000000  0.000000 -1.878157  0.000000
  1O   5s         0.204376 -0.000000 -0.000000 -0.000000  6.983608  0.000000
  1O   1pz       -0.000000  0.297500  0.000000  0.000000 -0.000000 -0.098128
  1O   1px        0.176404 -0.000000 -0.000000  0.000000 -0.034473 -0.000000
  1O   1py       -0.000000  0.000000  0.000000  0.243823 -0.000000 -0.000000
  1O   2pz       -0.000000  0.610742  0.000000  0.000000 -0.000000 -0.301279
  1O   2px        0.178025  0.000000 -0.000000 -0.000000 -0.529861 -0.000000
  1O   2py       -0.000000  0.000000  0.000000  0.532480  0.000000 -0.000000
  1O   3pz        0.000000 -1.680327 -0.000000 -0.000000  0.000000 -0.694980
  1O   3px        0.430071  0.000000  0.000000  0.000000 -1.926233 -0.000000
  1O   3py       -0.000000  0.000000 -0.000000 -2.354273 -0.000000 -0.000000
  1O   1dz2      -0.006443  0.000000  0.000000 -0.000000  0.009804 -0.000000
  1O   1dxz       0.000000 -0.011942 -0.000000 -0.000000  0.000000 -0.030715
  1O   1dyz       0.000000  0.000000 -0.007785  0.000000  0.000000 -0.000000
  1O   1dx2y2     0.011465  0.000000 -0.000000  0.000000 -0.023811 -0.000000
  1O   1dxy      -0.000000  0.000000 -0.000000 -0.019102 -0.000000 -0.000000
  1O   2dz2      -0.013822  0.000000  0.000000 -0.000000 -0.080878 -0.000000
  1O   2dxz       0.000000  0.019228  0.000000 -0.000000 -0.000000 -0.004611
  1O   2dyz      -0.000000  0.000000 -0.072306  0.000000 -0.000000  0.000000
  1O   2dx2y2     0.029466 -0.000000 -0.000000  0.000000  0.056725  0.000000
  1O   2dxy      -0.000000 -0.000000  0.000000  0.032300 -0.000000  0.000000
  1O   1f0        0.000000  0.001732  0.000000  0.000000  0.000000  0.007123
  1O   1f+1      -0.001572 -0.000000  0.000000  0.000000  0.006364 -0.000000
  1O   1f-1       0.000000 -0.000000  0.000000  0.001688 -0.000000  0.000000
  1O   1f+2      -0.000000 -0.002292 -0.000000  0.000000 -0.000000 -0.009144
  1O   1f-2       0.000000 -0.000000  0.001519 -0.000000  0.000000 -0.000000
  1O   1f+3      -0.000551 -0.000000  0.000000  0.000000  0.004874  0.000000
  1O   1f-3      -0.000000 -0.000000  0.000000  0.006546  0.000000  0.000000
  2H   1s         0.083216 -0.000000  0.000000  0.013376 -0.013882  0.000000
  2H   2s         0.838898  0.000000 -0.000000  0.332875 -0.424087 -0.000000
  2H   3s        -2.309473 -0.000000  0.000000 -2.506107  0.025878  0.000000
  2H   1pz       -0.000000  0.016904 -0.054166  0.000000  0.000000 -0.050423
  2H   1px        0.034224  0.000000 -0.000000  0.012361 -0.038343  0.000000
  2H   1py       -0.016319 -0.000000  0.000000 -0.027838  0.037768 -0.000000
  3H   1s         0.083216 -0.000000  0.000000 -0.013376 -0.013882 -0.000000
  3H   2s         0.838898 -0.000000  0.000000 -0.332875 -0.424087 -0.000000
  3H   3s        -2.309473 -0.000000  0.000000  2.506107  0.025878 -0.000000
  3H   1pz       -0.000000  0.016904  0.054166 -0.000000  0.000000 -0.050423
  3H   1px        0.034224  0.000000 -0.000000 -0.012361 -0.038343 -0.000000
  3H   1py        0.016319  0.000000 -0.000000 -0.027838 -0.037768 -0.000000
                     24        25        26        27        28        29   
                   0.73724   0.85539   0.93481   1.20916   1.24711   1.28992
                   0.00000   0.00000   0.00000   0.00000   0.00000   0.00000
                  --------  --------  --------  --------  --------  --------
  0C   1s         0.017333  0.000000 -0.037405 -0.103167 -0.000000 -0.000000
  0C   2s         0.043228  0.000000 -0.091555 -0.315597 -0.000000 -0.000000
  0C   3s         0.173524  0.000000  0.098410  3.419324  0.000000  0.000000
  0C   4s        -1.852349 -0.000000  0.681748 -8.963024 -0.000000 -0.000000
  0C   5s        -3.051374 -0.000000  0.532983  2.925819  0.000000  0.000000
  0C   1pz       -0.000000 -0.000000  0.000000 -0.000000  1.209716  0.000000
  0C   1px        0.018937 -0.000000  0.555385 -0.217718 -0.000000  0.000000
  0C   1py       -0.000000  0.205483 -0.000000 -0.000000  0.000000 -0.000000
  0C   2pz        0.000000  0.000000 -0.000000  0.000000 -1.660080 -0.000000
  0C   2px        0.128621 -0.000000  1.054762 -1.243278  0.000000 -0.000000
  0C   2py       -0.000000  1.137190  0.000000  0.000000 -0.000000  0.000000
  0C   3pz       -0.000000 -0.000000  0.000000 -0.000000  0.770991  0.000000
  0C   3px        0.125873  0.000000  1.013203 -1.248333 -0.000000 -0.000000
  0C   3py        0.000000  1.415253  0.000000 -0.000000  0.000000 -0.000000
  0C   1dz2       0.011716  0.000000  0.024046  0.006871  0.000000  0.000000
  0C   1dxz      -0.000000 -0.000000  0.000000 -0.000000  0.008441 -0.000000
  0C   1dyz       0.000000 -0.000000  0.000000  0.000000 -0.000000 -0.019007
  0C   1dx2y2    -0.007534 -0.000000 -0.035139 -0.061711  0.000000 -0.000000
  0C   1dxy       0.000000 -0.016802  0.000000 -0.000000  0.000000 -0.000000
  0C   2dz2       1.261068  0.000000 -0.778105  0.679567  0.000000  0.000000
  0C   2dxz      -0.000000  0.000000  0.000000  0.000000 -0.247364 -0.000000
  0C   2dyz      -0.000000  0.000000 -0.000000 -0.000000 -0.000000  0.014646
  0C   2dx2y2     0.624780 -0.000000  1.570338 -0.608431  0.000000 -0.000000
  0C   2dxy       0.000000 -2.077623 -0.000000  0.000000  0.000000 -0.000000
  0C   1f0       -0.000000 -0.000000  0.000000 -0.000000  0.025443  0.000000
  0C   1f+1      -0.016978  0.000000 -0.044987  0.068739 -0.000000  0.000000
  0C   1f-1       0.000000 -0.060055 -0.000000 -0.000000  0.000000 -0.000000
  0C   1f+2      -0.000000  0.000000 -0.000000  0.000000 -0.006926 -0.000000
  0C   1f-2       0.000000 -0.000000 -0.000000 -0.000000 -0.000000  0.105381
  0C   1f+3       0.093363  0.000000 -0.046889  0.203948  0.000000  0.000000
  0C   1f-3      -0.000000  0.034252  0.000000 -0.000000  0.000000 -0.000000
  1O   1s         0.016871 -0.000000  0.025803  0.002430  0.000000  0.000000
  1O   2s         0.034033  0.000000  0.057636  0.010430 -0.000000  0.000000
  1O   3s         0.044880 -0.000000  0.062046 -0.195377  0.000000 -0.000000
  1O   4s        -0.930904  0.000000 -1.817613  1.075030 -0.000000  0.000000
  1O   5s         2.844688  0.000000 -1.153267  3.318183  0.000000  0.000000
  1O   1pz        0.000000  0.000000 -0.000000  0.000000  0.054436  0.000000
  1O   1px       -0.033495 -0.000000  0.278247 -0.008421 -0.000000  0.000000
  1O   1py       -0.000000  0.154481  0.000000 -0.000000  0.000000 -0.000000
  1O   2pz       -0.000000 -0.000000 -0.000000 -0.000000  0.198243  0.000000
  1O   2px       -0.130862 -0.000000  1.068247 -0.972621 -0.000000 -0.000000
  1O   2py       -0.000000  0.594476  0.000000 -0.000000  0.000000 -0.000000
  1O   3pz        0.000000  0.000000  0.000000  0.000000  0.010962  0.000000
  1O   3px       -0.865775 -0.000000 -0.377018 -1.514646 -0.000000 -0.000000
  1O   3py       -0.000000 -0.338959 -0.000000  0.000000 -0.000000  0.000000
  1O   1dz2       0.011870  0.000000 -0.003673 -0.003497 -0.000000 -0.000000
  1O   1dxz      -0.000000 -0.000000  0.000000  0.000000  0.014078  0.000000
  1O   1dyz      -0.000000 -0.000000  0.000000  0.000000  0.000000  0.003006
  1O   1dx2y2    -0.001483 -0.000000  0.008115  0.006959  0.000000  0.000000
  1O   1dxy      -0.000000  0.028010  0.000000 -0.000000  0.000000 -0.000000
  1O   2dz2       0.128053  0.000000 -0.016645  0.063241  0.000000  0.000000
  1O   2dxz      -0.000000  0.000000 -0.000000 -0.000000 -0.039987 -0.000000
  1O   2dyz      -0.000000  0.000000 -0.000000 -0.000000 -0.000000  0.837027
  1O   2dx2y2     0.103928  0.000000  0.052083  0.442842  0.000000  0.000000
  1O   2dxy       0.000000 -0.091834 -0.000000  0.000000 -0.000000  0.000000
  1O   1f0        0.000000  0.000000 -0.000000  0.000000 -0.020946 -0.000000
  1O   1f+1      -0.002040  0.000000  0.007716  0.017878 -0.000000  0.000000
  1O   1f-1      -0.000000 -0.002250  0.000000  0.000000 -0.000000  0.000000
  1O   1f+2      -0.000000 -0.000000  0.000000 -0.000000  0.027689  0.000000
  1O   1f-2       0.000000 -0.000000  0.000000 -0.000000  0.000000 -0.007771
  1O   1f+3       0.008632  0.000000  0.010387  0.030503 -0.000000  0.000000
  1O   1f-3       0.000000 -0.019474  0.000000  0.000000 -0.000000  0.000000
  2H   1s        -0.000125  0.057890 -0.033667  0.089801 -0.000000  0.000000
  2H   2s         1.586935 -2.256145  0.355064  1.051705  0.000000 -0.000000
  2H   3s         0.553282 -0.192172  0.041629 -1.219706 -0.000000 -0.000000
  2H   1pz        0.000000  0.000000 -0.000000  0.000000 -0.136518 -0.320002
  2H   1px        0.065852 -0.166751 -0.033110  0.170008  0.000000  0.000000
  2H   1py       -0.117197  0.093762 -0.025952 -0.227574 -0.000000  0.000000
  3H   1s        -0.000125 -0.057890 -0.033667  0.089801  0.000000  0.000000
  3H   2s         1.586935  2.256145  0.355064  1.051705  0.000000  0.000000
  3H   3s         0.553282  0.192172  0.041629 -1.219706 -0.000000 -0.000000
  3H   1pz       -0.000000  0.000000 -0.000000 -0.000000 -0.136518  0.320002
  3H   1px        0.065852  0.166751 -0.033110  0.170008  0.000000  0.000000
  3H   1py        0.117197  0.093762  0.025952  0.227574 -0.000000  0.000000
                     30        31        32        33        34        35   
                   1.35588   1.38531   1.43274   1.50323   1.65399   1.74060
                   0.00000   0.00000   0.00000   0.00000   0.00000   0.00000
                  --------  --------  --------  --------  --------  --------
  0C   1s         0.004457  0.000000 -0.000000  0.048410 -0.000000  0.000000
  0C   2s         0.000471  0.000000 -0.000000  0.154197 -0.000000  0.000000
  0C   3s        -1.164518  0.000000  0.000000 -1.119130  0.000000 -0.000000
  0C   4s         6.737889 -0.000000 -0.000000  0.936470  0.000000 -0.000000
  0C   5s         2.202537 -0.000000  0.000000 -2.566313  0.000000 -0.000000
  0C   1pz       -0.000000  0.000000  0.000000  0.000000  0.299143 -0.055345
  0C   1px       -0.606425  0.000000  0.000000  0.495297 -0.000000  0.000000
  0C   1py       -0.000000 -1.064333 -0.636820 -0.000000  0.000000  0.000000
  0C   2pz        0.000000 -0.000000 -0.000000 -0.000000 -0.865547 -0.662574
  0C   2px        6.282270 -0.000000 -0.000000 -3.410929  0.000000 -0.000000
  0C   2py        0.000000  3.484822  1.570042  0.000000 -0.000000 -0.000000
  0C   3pz       -0.000000  0.000000  0.000000  0.000000  0.157446 -0.222759
  0C   3px        0.329234  0.000000 -0.000000  0.275480  0.000000 -0.000000
  0C   3py       -0.000000 -1.881816 -0.556114 -0.000000  0.000000 -0.000000
  0C   1dz2      -0.064406  0.000000  0.000000 -0.017567 -0.000000  0.000000
  0C   1dxz      -0.000000 -0.000000 -0.000000 -0.000000 -0.007784  0.146681
  0C   1dyz      -0.000000  0.000000 -0.000000  0.000000  0.000000 -0.000000
  0C   1dx2y2     0.094397  0.000000 -0.000000 -0.069340  0.000000  0.000000
  0C   1dxy      -0.000000 -0.069318  0.040862 -0.000000  0.000000 -0.000000
  0C   2dz2      -1.244159  0.000000  0.000000 -0.255471 -0.000000  0.000000
  0C   2dxz      -0.000000  0.000000  0.000000  0.000000  0.380154 -1.060896
  0C   2dyz      -0.000000  0.000000  0.000000  0.000000 -0.000000  0.000000
  0C   2dx2y2     2.191941 -0.000000 -0.000000 -1.189300  0.000000 -0.000000
  0C   2dxy      -0.000000 -1.098336 -0.593602 -0.000000  0.000000 -0.000000
  0C   1f0        0.000000 -0.000000  0.000000 -0.000000 -0.145863  0.014198
  0C   1f+1      -0.165503 -0.000000  0.000000  0.155784  0.000000 -0.000000
  0C   1f-1      -0.000000 -0.105285  0.000539 -0.000000 -0.000000 -0.000000
  0C   1f+2      -0.000000  0.000000 -0.000000  0.000000 -0.116723  0.055772
  0C   1f-2      -0.000000 -0.000000 -0.000000 -0.000000  0.000000  0.000000
  0C   1f+3      -0.184225  0.000000  0.000000 -0.081918 -0.000000  0.000000
  0C   1f-3      -0.000000 -0.050278  0.014004 -0.000000  0.000000  0.000000
  1O   1s        -0.001042 -0.000000 -0.000000 -0.003875  0.000000 -0.000000
  1O   2s        -0.023544 -0.000000 -0.000000 -0.001670  0.000000 -0.000000
  1O   3s         0.591395  0.000000  0.000000 -0.193756  0.000000  0.000000
  1O   4s        -3.330898  0.000000  0.000000  1.310664 -0.000000  0.000000
  1O   5s        -6.232558  0.000000  0.000000  2.033046 -0.000000  0.000000
  1O   1pz        0.000000  0.000000  0.000000  0.000000  0.002851  0.102632
  1O   1px        0.070375 -0.000000 -0.000000 -0.066265  0.000000  0.000000
  1O   1py        0.000000 -0.008783 -0.129210 -0.000000  0.000000  0.000000
  1O   2pz       -0.000000 -0.000000 -0.000000 -0.000000 -0.052726  0.055200
  1O   2px        2.353617 -0.000000 -0.000000 -0.845567  0.000000 -0.000000
  1O   2py       -0.000000 -0.037735  0.043681  0.000000 -0.000000 -0.000000
  1O   3pz        0.000000  0.000000  0.000000 -0.000000  0.049466  0.891140
  1O   3px        2.644595 -0.000000 -0.000000 -0.838219  0.000000 -0.000000
  1O   3py        0.000000  0.190451  0.241111  0.000000  0.000000  0.000000
  1O   1dz2      -0.000107 -0.000000 -0.000000  0.008861 -0.000000  0.000000
  1O   1dxz      -0.000000 -0.000000  0.000000 -0.000000 -0.005466 -0.016227
  1O   1dyz      -0.000000 -0.000000 -0.000000 -0.000000  0.000000  0.000000
  1O   1dx2y2     0.005094 -0.000000  0.000000 -0.002575 -0.000000 -0.000000
  1O   1dxy      -0.000000 -0.000769 -0.012848  0.000000 -0.000000 -0.000000
  1O   2dz2       0.857345 -0.000000 -0.000000  0.453871 -0.000000  0.000000
  1O   2dxz      -0.000000  0.000000  0.000000  0.000000 -0.152811 -1.244387
  1O   2dyz       0.000000 -0.000000 -0.000000 -0.000000  0.000000 -0.000000
  1O   2dx2y2    -0.537561  0.000000  0.000000  0.745626 -0.000000  0.000000
  1O   2dxy       0.000000  0.300438 -0.583754  0.000000 -0.000000 -0.000000
  1O   1f0       -0.000000  0.000000 -0.000000  0.000000 -0.007064 -0.008434
  1O   1f+1      -0.052240  0.000000  0.000000  0.024174 -0.000000  0.000000
  1O   1f-1       0.000000  0.010687  0.003181 -0.000000 -0.000000 -0.000000
  1O   1f+2       0.000000 -0.000000  0.000000 -0.000000  0.001603  0.012507
  1O   1f-2       0.000000 -0.000000  0.000000  0.000000 -0.000000 -0.000000
  1O   1f+3      -0.063093  0.000000  0.000000  0.023846 -0.000000  0.000000
  1O   1f-3       0.000000  0.034622 -0.000486  0.000000 -0.000000 -0.000000
  2H   1s        -0.061779  0.180066 -0.018274  0.218990  0.000000 -0.000000
  2H   2s         0.591196 -2.386563 -0.955694 -1.874251  0.000000 -0.000000
  2H   3s        -0.537369  1.873110  0.469623  1.195547 -0.000000  0.000000
  2H   1pz       -0.000000  0.000000 -0.000000  0.000000  0.733096 -0.117460
  2H   1px        0.171415  0.076688 -0.529554  0.005384 -0.000000  0.000000
  2H   1py       -0.061114  0.416421 -0.091039  0.160619  0.000000  0.000000
  3H   1s        -0.061779 -0.180066  0.018274  0.218990 -0.000000 -0.000000
  3H   2s         0.591196  2.386563  0.955694 -1.874251 -0.000000  0.000000
  3H   3s        -0.537369 -1.873110 -0.469623  1.195547 -0.000000 -0.000000
  3H   1pz       -0.000000  0.000000 -0.000000  0.000000  0.733096 -0.117460
  3H   1px        0.171415 -0.076688  0.529554  0.005384 -0.000000  0.000000
  3H   1py        0.061114  0.416421 -0.091039 -0.160619 -0.000000 -0.000000
                     36        37        38        39        40        41   
                   1.83157   1.83700   1.88668   1.99328   2.15342   2.27958
                   0.00000   0.00000   0.00000   0.00000   0.00000   0.00000
                  --------  --------  --------  --------  --------  --------
  0C   1s         0.000000  0.004068  0.000000  0.029403  0.000000 -0.004032
  0C   2s         0.000000  0.043128 -0.000000  0.086102  0.000000 -0.022253
  0C   3s        -0.000000 -0.136482 -0.000000 -1.022998 -0.000000 -0.585687
  0C   4s        -0.000000 -1.969537  0.000000  1.804065  0.000000  3.075407
  0C   5s        -0.000000  0.505629 -0.000000 -0.262353 -0.000000 -0.226116
  0C   1pz       -0.000000 -0.000000  0.000000 -0.000000  0.000000  0.000000
  0C   1px        0.000000 -0.261416  0.000000 -0.716513  0.000000 -0.228745
  0C   1py       -0.000000  0.000000  0.111686 -0.000000  0.019979 -0.000000
  0C   2pz       -0.000000 -0.000000  0.000000  0.000000  0.000000  0.000000
  0C   2px       -0.000000 -0.386050  0.000000  1.662022 -0.000000  1.707751
  0C   2py        0.000000 -0.000000 -0.016451  0.000000 -1.240854 -0.000000
  0C   3pz        0.000000  0.000000  0.000000 -0.000000 -0.000000 -0.000000
  0C   3px        0.000000 -0.382132  0.000000 -0.125715  0.000000  0.388265
  0C   3py        0.000000  0.000000 -0.556210 -0.000000  0.853418 -0.000000
  0C   1dz2      -0.000000  0.098592 -0.000000 -0.118405  0.000000  0.009518
  0C   1dxz       0.000000  0.000000 -0.000000 -0.000000 -0.000000 -0.000000
  0C   1dyz       0.048445 -0.000000  0.000000 -0.000000  0.000000  0.000000
  0C   1dx2y2    -0.000000  0.119687 -0.000000  0.125768  0.000000 -0.011639
  0C   1dxy      -0.000000 -0.000000 -0.007962  0.000000 -0.381514 -0.000000
  0C   2dz2       0.000000  0.030959 -0.000000 -0.224894 -0.000000 -0.548264
  0C   2dxz      -0.000000 -0.000000  0.000000  0.000000  0.000000  0.000000
  0C   2dyz      -0.871892  0.000000 -0.000000 -0.000000  0.000000  0.000000
  0C   2dx2y2     0.000000  0.093542 -0.000000  0.069050 -0.000000  2.032488
  0C   2dxy       0.000000 -0.000000 -1.068420 -0.000000  2.177215  0.000000
  0C   1f0        0.000000  0.000000 -0.000000 -0.000000 -0.000000 -0.000000
  0C   1f+1      -0.000000 -0.136349  0.000000  0.128664  0.000000  0.152578
  0C   1f-1       0.000000 -0.000000 -0.301381 -0.000000 -0.297423 -0.000000
  0C   1f+2       0.000000 -0.000000  0.000000  0.000000  0.000000 -0.000000
  0C   1f-2      -0.126502  0.000000 -0.000000 -0.000000 -0.000000 -0.000000
  0C   1f+3       0.000000  0.313385 -0.000000 -0.172561  0.000000 -0.382298
  0C   1f-3      -0.000000  0.000000  0.030649  0.000000 -0.105743 -0.000000
  1O   1s        -0.000000  0.000047 -0.000000  0.003571 -0.000000  0.006879
  1O   2s        -0.000000 -0.001313 -0.000000  0.004703 -0.000000  0.011085
  1O   3s         0.000000  0.002484  0.000000  0.134437  0.000000  0.221778
  1O   4s         0.000000 -0.156729  0.000000 -1.072038  0.000000 -2.313711
  1O   5s         0.000000  1.635961 -0.000000 -0.282039 -0.000000 -1.313584
  1O   1pz       -0.000000 -0.000000  0.000000  0.000000  0.000000  0.000000
  1O   1px       -0.000000 -0.260159  0.000000 -0.323171  0.000000 -0.120076
  1O   1py       -0.000000  0.000000  0.257373 -0.000000 -0.306426  0.000000
  1O   2pz        0.000000  0.000000 -0.000000 -0.000000 -0.000000 -0.000000
  1O   2px       -0.000000  0.009226 -0.000000  0.922001 -0.000000  1.353424
  1O   2py        0.000000 -0.000000 -0.146629  0.000000 -0.002937 -0.000000
  1O   3pz       -0.000000 -0.000000  0.000000  0.000000  0.000000  0.000000
  1O   3px       -0.000000 -0.906582  0.000000 -0.187405  0.000000  0.235603
  1O   3py       -0.000000  0.000000  0.802484  0.000000 -1.000446  0.000000
  1O   1dz2      -0.000000 -0.003477  0.000000 -0.009060  0.000000 -0.009733
  1O   1dxz      -0.000000  0.000000 -0.000000 -0.000000 -0.000000  0.000000
  1O   1dyz       0.010680 -0.000000  0.000000  0.000000 -0.000000  0.000000
  1O   1dx2y2     0.000000  0.007532 -0.000000  0.016182 -0.000000  0.000451
  1O   1dxy       0.000000 -0.000000 -0.015658 -0.000000  0.006064 -0.000000
  1O   2dz2      -0.000000 -0.162466  0.000000 -0.406023  0.000000 -0.343859
  1O   2dxz      -0.000000 -0.000000  0.000000 -0.000000  0.000000  0.000000
  1O   2dyz       0.624434 -0.000000  0.000000  0.000000 -0.000000 -0.000000
  1O   2dx2y2     0.000000  0.662471 -0.000000  0.571112  0.000000 -0.167082
  1O   2dxy       0.000000 -0.000000 -0.894481 -0.000000  0.587171 -0.000000
  1O   1f0       -0.000000 -0.000000  0.000000  0.000000  0.000000  0.000000
  1O   1f+1       0.000000  0.007268 -0.000000 -0.042097  0.000000 -0.050839
  1O   1f-1       0.000000 -0.000000 -0.006486 -0.000000  0.005756 -0.000000
  1O   1f+2       0.000000  0.000000 -0.000000 -0.000000 -0.000000 -0.000000
  1O   1f-2       0.019182 -0.000000  0.000000  0.000000 -0.000000  0.000000
  1O   1f+3       0.000000  0.007528 -0.000000 -0.052453 -0.000000 -0.001107
  1O   1f-3       0.000000 -0.000000 -0.004890 -0.000000  0.063887  0.000000
  2H   1s        -0.000000 -0.651864  0.515838  0.232773  0.502179  0.380569
  2H   2s         0.000000  1.279046 -1.347618 -0.386958  1.068627 -0.535961
  2H   3s        -0.000000 -0.783991  0.873244  0.161733 -0.435093  0.338283
  2H   1pz        0.741099  0.000000  0.000000 -0.000000 -0.000000 -0.000000
  2H   1px        0.000000  0.293943  0.187844 -0.370518 -0.015038  0.607568
  2H   1py       -0.000000  0.109995  0.338409 -0.195442 -0.675782  0.662564
  3H   1s         0.000000 -0.651864 -0.515838  0.232773 -0.502179  0.380569
  3H   2s         0.000000  1.279046  1.347618 -0.386958 -1.068627 -0.535961
  3H   3s         0.000000 -0.783991 -0.873244  0.161733  0.435093  0.338283
  3H   1pz       -0.741099  0.000000 -0.000000 -0.000000  0.000000  0.000000
  3H   1px        0.000000  0.293943 -0.187844 -0.370518  0.015038  0.607568
  3H   1py        0.000000 -0.109995  0.338409  0.195442 -0.675782 -0.662564
                     42        43        44        45        46        47   
                   2.33695   2.37718   2.41977   2.67988   2.73047   2.78685
                   0.00000   0.00000   0.00000   0.00000   0.00000   0.00000
                  --------  --------  --------  --------  --------  --------
  0C   1s        -0.000000 -0.000000 -0.041583 -0.011962  0.000000  0.000000
  0C   2s        -0.000000 -0.000000 -0.121725 -0.038589  0.000000  0.000000
  0C   3s        -0.000000 -0.000000 -0.160874 -0.085569  0.000000 -0.000000
  0C   4s         0.000000  0.000000  3.225304  2.569760 -0.000000  0.000000
  0C   5s        -0.000000 -0.000000 -0.268722  1.640157  0.000000  0.000000
  0C   1pz       -0.000000  0.009487 -0.000000  0.000000  0.000000  0.000000
  0C   1px       -0.000000 -0.000000 -0.082134  0.079488 -0.000000  0.000000
  0C   1py        0.275461  0.000000 -0.000000 -0.000000  0.000000  0.074048
  0C   2pz        0.000000 -0.212502  0.000000  0.000000  0.000000  0.000000
  0C   2px       -0.000000  0.000000 -2.215031  0.973654 -0.000000  0.000000
  0C   2py        2.349913  0.000000 -0.000000  0.000000  0.000000  1.514132
  0C   3pz       -0.000000  0.230434 -0.000000  0.000000 -0.000000  0.000000
  0C   3px        0.000000  0.000000 -0.235984  0.947649  0.000000  0.000000
  0C   3py        0.673069  0.000000 -0.000000  0.000000 -0.000000 -1.001054
  0C   1dz2       0.000000  0.000000  0.447486  0.116247 -0.000000  0.000000
  0C   1dxz      -0.000000  0.292067 -0.000000 -0.000000 -0.000000 -0.000000
  0C   1dyz       0.000000  0.000000  0.000000 -0.000000  1.165076 -0.000000
  0C   1dx2y2     0.000000  0.000000  0.284193 -0.102061  0.000000 -0.000000
  0C   1dxy       0.260146  0.000000 -0.000000  0.000000 -0.000000 -0.042752
  0C   2dz2      -0.000000 -0.000000 -1.205158 -0.507705  0.000000 -0.000000
  0C   2dxz       0.000000 -0.345090  0.000000  0.000000  0.000000  0.000000
  0C   2dyz       0.000000 -0.000000 -0.000000  0.000000 -0.697069  0.000000
  0C   2dx2y2    -0.000000  0.000000 -1.550480  0.254854 -0.000000  0.000000
  0C   2dxy      -1.368719 -0.000000  0.000000 -0.000000  0.000000  0.749091
  0C   1f0        0.000000 -0.045191  0.000000 -0.000000 -0.000000 -0.000000
  0C   1f+1       0.000000  0.000000  0.137297 -0.065407  0.000000  0.000000
  0C   1f-1      -0.251362 -0.000000  0.000000 -0.000000  0.000000 -0.205632
  0C   1f+2      -0.000000  0.142203 -0.000000  0.000000  0.000000  0.000000
  0C   1f-2      -0.000000  0.000000 -0.000000 -0.000000  0.157669 -0.000000
  0C   1f+3      -0.000000 -0.000000 -0.434436 -0.085707  0.000000 -0.000000
  0C   1f-3       0.002955 -0.000000  0.000000  0.000000  0.000000  0.136096
  1O   1s        -0.000000  0.000000 -0.014505  0.103993  0.000000  0.000000
  1O   2s        -0.000000 -0.000000 -0.041621  0.354620  0.000000  0.000000
  1O   3s         0.000000  0.000000  0.198220 -2.450108 -0.000000 -0.000000
  1O   4s        -0.000000 -0.000000  0.354527  3.699278  0.000000  0.000000
  1O   5s         0.000000 -0.000000  0.366315 -5.342695 -0.000000 -0.000000
  1O   1pz        0.000000 -1.133594  0.000000 -0.000000  0.000000 -0.000000
  1O   1px        0.000000  0.000000  0.142596 -0.656758 -0.000000 -0.000000
  1O   1py       -0.586229 -0.000000  0.000000 -0.000000  0.000000  0.966920
  1O   2pz       -0.000000  1.606240 -0.000000  0.000000 -0.000000  0.000000
  1O   2px       -0.000000  0.000000 -0.395394  1.364724 -0.000000  0.000000
  1O   2py        0.941475  0.000000 -0.000000  0.000000 -0.000000 -1.790369
  1O   3pz        0.000000 -0.698986  0.000000 -0.000000  0.000000 -0.000000
  1O   3px        0.000000  0.000000  0.096084  0.967778  0.000000  0.000000
  1O   3py       -0.732569 -0.000000  0.000000 -0.000000  0.000000  0.502011
  1O   1dz2       0.000000  0.000000  0.023178  0.023607  0.000000  0.000000
  1O   1dxz       0.000000 -0.015638  0.000000 -0.000000  0.000000 -0.000000
  1O   1dyz      -0.000000 -0.000000  0.000000 -0.000000  0.009594 -0.000000
  1O   1dx2y2     0.000000  0.000000  0.006287 -0.029777  0.000000 -0.000000
  1O   1dxy      -0.000317 -0.000000  0.000000 -0.000000  0.000000  0.036574
  1O   2dz2       0.000000 -0.000000  0.290265  0.275882  0.000000  0.000000
  1O   2dxz       0.000000  0.001828  0.000000  0.000000 -0.000000  0.000000
  1O   2dyz       0.000000 -0.000000  0.000000  0.000000  0.002906 -0.000000
  1O   2dx2y2     0.000000 -0.000000  0.093186 -0.326513 -0.000000 -0.000000
  1O   2dxy       0.302015  0.000000 -0.000000 -0.000000  0.000000  0.628014
  1O   1f0        0.000000 -0.002804  0.000000  0.000000  0.000000  0.000000
  1O   1f+1      -0.000000 -0.000000 -0.005662  0.009270  0.000000 -0.000000
  1O   1f-1      -0.008396 -0.000000  0.000000 -0.000000  0.000000 -0.017246
  1O   1f+2      -0.000000  0.006189 -0.000000 -0.000000 -0.000000 -0.000000
  1O   1f-2      -0.000000 -0.000000  0.000000  0.000000 -0.070189  0.000000
  1O   1f+3      -0.000000  0.000000 -0.010383 -0.003921 -0.000000  0.000000
  1O   1f-3      -0.043274 -0.000000  0.000000 -0.000000 -0.000000 -0.040272
  2H   1s         0.397887  0.000000  0.060716  0.036667  0.000000  0.252875
  2H   2s        -2.713764 -0.000000 -2.813303 -0.492854 -0.000000 -0.755338
  2H   3s         0.185675  0.000000  0.306141 -0.004223  0.000000  0.819514
  2H   1pz       -0.000000  0.002446  0.000000  0.000000  0.090536  0.000000
  2H   1px       -0.580108 -0.000000 -0.837580 -0.156876 -0.000000 -0.609468
  2H   1py        0.824356  0.000000  0.912324  0.115902  0.000000  0.128823
  3H   1s        -0.397887 -0.000000  0.060716  0.036667  0.000000 -0.252875
  3H   2s         2.713764  0.000000 -2.813303 -0.492854 -0.000000  0.755338
  3H   3s        -0.185675 -0.000000  0.306141 -0.004223 -0.000000 -0.819514
  3H   1pz        0.000000  0.002446 -0.000000  0.000000 -0.090536  0.000000
  3H   1px        0.580108  0.000000 -0.837580 -0.156876  0.000000  0.609468
  3H   1py        0.824356  0.000000 -0.912324 -0.115902 -0.000000  0.128823
                     48        49        50        51        52        53   
                   2.79662   2.80844   2.91143   3.00098   3.00272   3.08006
                   0.00000   0.00000   0.00000   0.00000   0.00000   0.00000
                  --------  --------  --------  --------  --------  --------
  0C   1s        -0.007591 -0.000000  0.000000  0.000000  0.000000 -0.014446
  0C   2s        -0.032415 -0.000000  0.000000  0.000000  0.000000 -0.046114
  0C   3s        -0.547091 -0.000000 -0.000000 -0.000000 -0.000000 -0.301692
  0C   4s         3.140347  0.000000  0.000000  0.000000 -0.000000  2.432077
  0C   5s         0.294411  0.000000  0.000000  0.000000  0.000000 -1.099248
  0C   1pz       -0.000000  0.011382 -0.099802 -0.000000  0.000000 -0.000000
  0C   1px        0.019841 -0.000000  0.000000  0.000000  0.000000 -0.338989
  0C   1py        0.000000 -0.000000 -0.000000  0.339188  0.000000  0.000000
  0C   2pz       -0.000000  0.137473  0.349802  0.000000 -0.000000  0.000000
[...]
    -> L=2 1:     0.001 sec done=      1280 (100.0%) skipped=         0 
    -> L=2 2:     0.000 sec done=       400 (100.0%) skipped=         0 
    -> L=3 0:     0.001 sec done=      1280 (100.0%) skipped=         0 
    -> L=3 1:     0.001 sec done=       640 (100.0%) skipped=         0 
    -> L=3 2:     0.000 sec done=       320 (100.0%) skipped=         0 
    -> L=3 3:     0.000 sec done=       120 (100.0%) skipped=         0 
    -> Hermite basis Coulomb matrix formed in    0.0 sec
    -> Making contracted Gaussian Coulomb matrix - ok (    0.001 sec)
    ->Total Fock matrix time from Split-J part =    0.027 sec
-ok  1.7386e-03 (   0.1 sec   5/ 12 done)
     CP-SCF ITERATION   4: SHARK-SplitRIJ==>> SHARK/Split-RI-J: NDens=7 Thresh =     2.500000e-11 TCut=    2.500000e-12 Lmax=3 LmaxAux=4 HaveExt=0
==>> SHARK/AuxDens: NDens=7 Thresh =     2.500000e-11 TCut=    2.500000e-12 Lmax=3 LmaxAux=4
    -> Making Hermite density - ok     0.002 sec
    -> Making Aux-basis density - (lmax=3)
    -> L=0 0:    0.002 sec done=      5381 ( 99.6%) skipped=        19 
    -> L=1 0:    0.002 sec done=      5120 (100.0%) skipped=         0 
    -> L=1 1:    0.001 sec done=      1440 (100.0%) skipped=         0 
    -> L=2 0:    0.001 sec done=      2560 (100.0%) skipped=         0 
    -> L=2 1:    0.001 sec done=      1280 (100.0%) skipped=         0 
    -> L=2 2:    0.000 sec done=       400 (100.0%) skipped=         0 
    -> L=3 0:    0.001 sec done=      1280 (100.0%) skipped=         0 
    -> L=3 1:    0.001 sec done=       640 (100.0%) skipped=         0 
    -> L=3 2:    0.000 sec done=       320 (100.0%) skipped=         0 
    -> L=3 3:    0.000 sec done=       120 (100.0%) skipped=         0 
    -> Aux basis density formed in    0.0 sec
    -> Solving linear equations - ok (   0.0 sec)
    -> Making Hermite basis Coulomb matrix
    -> L=0 0:     0.002 sec done=      5398 (100.0%) skipped=         2 
    -> L=1 0:     0.003 sec done=      5120 (100.0%) skipped=         0 
    -> L=1 1:     0.001 sec done=      1440 (100.0%) skipped=         0 
    -> L=2 0:     0.001 sec done=      2560 (100.0%) skipped=         0 
    -> L=2 1:     0.002 sec done=      1280 (100.0%) skipped=         0 
    -> L=2 2:     0.000 sec done=       400 (100.0%) skipped=         0 
    -> L=3 0:     0.001 sec done=      1280 (100.0%) skipped=         0 
    -> L=3 1:     0.001 sec done=       640 (100.0%) skipped=         0 
    -> L=3 2:     0.000 sec done=       320 (100.0%) skipped=         0 
    -> L=3 3:     0.000 sec done=       120 (100.0%) skipped=         0 
    -> Hermite basis Coulomb matrix formed in    0.0 sec
    -> Making contracted Gaussian Coulomb matrix - ok (    0.000 sec)
    ->Total Fock matrix time from Split-J part =    0.031 sec
-ok  1.8692e-04 (   0.1 sec   8/ 12 done)
     CP-SCF ITERATION   5: SHARK-SplitRIJ==>> SHARK/Split-RI-J: NDens=4 Thresh =     2.500000e-11 TCut=    2.500000e-12 Lmax=3 LmaxAux=4 HaveExt=0
==>> SHARK/AuxDens: NDens=4 Thresh =     2.500000e-11 TCut=    2.500000e-12 Lmax=3 LmaxAux=4
    -> Making Hermite density - ok     0.001 sec
    -> Making Aux-basis density - (lmax=3)
    -> L=0 0:    0.005 sec done=      5360 ( 99.3%) skipped=        40 
    -> L=1 0:    0.003 sec done=      5120 (100.0%) skipped=         0 
    -> L=1 1:    0.001 sec done=      1440 (100.0%) skipped=         0 
    -> L=2 0:    0.001 sec done=      2560 (100.0%) skipped=         0 
    -> L=2 1:    0.001 sec done=      1280 (100.0%) skipped=         0 
    -> L=2 2:    0.000 sec done=       400 (100.0%) skipped=         0 
    -> L=3 0:    0.001 sec done=      1280 (100.0%) skipped=         0 
    -> L=3 1:    0.001 sec done=       640 (100.0%) skipped=         0 
    -> L=3 2:    0.000 sec done=       320 (100.0%) skipped=         0 
    -> L=3 3:    0.000 sec done=       120 (100.0%) skipped=         0 
    -> Aux basis density formed in    0.0 sec
    -> Solving linear equations - ok (   0.0 sec)
    -> Making Hermite basis Coulomb matrix
    -> L=0 0:     0.002 sec done=      5400 (100.0%) skipped=         0 
    -> L=1 0:     0.004 sec done=      5120 (100.0%) skipped=         0 
    -> L=1 1:     0.001 sec done=      1440 (100.0%) skipped=         0 
    -> L=2 0:     0.001 sec done=      2560 (100.0%) skipped=         0 
    -> L=2 1:     0.001 sec done=      1280 (100.0%) skipped=         0 
    -> L=2 2:     0.000 sec done=       400 (100.0%) skipped=         0 
    -> L=3 0:     0.001 sec done=      1280 (100.0%) skipped=         0 
    -> L=3 1:     0.001 sec done=       640 (100.0%) skipped=         0 
    -> L=3 2:     0.000 sec done=       320 (100.0%) skipped=         0 
    -> L=3 3:     0.000 sec done=       120 (100.0%) skipped=         0 
    -> Hermite basis Coulomb matrix formed in    0.0 sec
    -> Making contracted Gaussian Coulomb matrix - ok (    0.000 sec)
    ->Total Fock matrix time from Split-J part =    0.034 sec
-ok  3.1334e-05 (   0.1 sec  12/ 12 done)
                    *** THE CP-SCF HAS CONVERGED ***

                                                 ... done   (      0.7 sec)
Forming perturbed density Hessian contributions  ... done   (      0.0 sec)
2nd integral derivative contribs (SHARK-RI)      ... ==>> SHARK/AuxDens: NDens=1 Thresh =     2.500000e-11 TCut=    2.500000e-12 Lmax=3 LmaxAux=4
    -> Making Hermite density - ok     0.001 sec
    -> Making Aux-basis density - (lmax=3)
    -> L=0 0:    0.001 sec done=      5362 ( 99.3%) skipped=        38 
    -> L=1 0:    0.002 sec done=      5120 (100.0%) skipped=         0 
    -> L=1 1:    0.001 sec done=      1440 (100.0%) skipped=         0 
    -> L=2 0:    0.001 sec done=      2560 (100.0%) skipped=         0 
    -> L=2 1:    0.001 sec done=      1280 (100.0%) skipped=         0 
    -> L=2 2:    0.000 sec done=       400 (100.0%) skipped=         0 
    -> L=3 0:    0.000 sec done=      1280 (100.0%) skipped=         0 
    -> L=3 1:    0.001 sec done=       640 (100.0%) skipped=         0 
    -> L=3 2:    0.000 sec done=       320 (100.0%) skipped=         0 
    -> L=3 3:    0.000 sec done=       120 (100.0%) skipped=         0 
    -> Aux basis density formed in    0.0 sec
    -> Solving linear equations - ok (   0.0 sec)
    -> Making Gradient pre-screening matrices - done (  0.0 sec)
    -> Making Aux_E - done (  0.0 sec)
Second derivative 2-index Hessian     ... done (  0.0 sec)
Second derivative 3-index Hessian     ...     -> L=0 0 :     0.020 sec done=      4822 skipped=       578 prim-skipped=         0
    -> L=1 0 :     0.037 sec done=      4638 skipped=       482 prim-skipped=         0
    -> L=1 1 :     0.019 sec done=      1250 skipped=       190 prim-skipped=         0
    -> L=2 0 :     0.047 sec done=      2260 skipped=       300 prim-skipped=         0
    -> L=2 1 :     0.049 sec done=      1100 skipped=       180 prim-skipped=         0
    -> L=2 2 :     0.019 sec done=       310 skipped=        90 prim-skipped=         0
    -> L=3 0 :     0.027 sec done=      1130 skipped=       150 prim-skipped=         0
    -> L=3 1 :     0.025 sec done=       550 skipped=        90 prim-skipped=         0
    -> L=3 2 :     0.026 sec done=       260 skipped=        60 prim-skipped=         0
    -> L=3 3 :     0.028 sec done=        90 skipped=        30 prim-skipped=         0
done (  0.3 sec)
First derivative 2-index x PAUX       ... done (  0.0 sec)
First derivative 3-index x PTOT       ...     -> L=0 0 :     0.003 sec done=      4881 skipped=       519 prim-skipped=         0
    -> L=1 0 :     0.006 sec done=      4640 skipped=       480 prim-skipped=         0
    -> L=1 1 :     0.003 sec done=      1250 skipped=       190 prim-skipped=         0
    -> L=2 0 :     0.003 sec done=      2260 skipped=       300 prim-skipped=         0
    -> L=2 1 :     0.004 sec done=      1100 skipped=       180 prim-skipped=         0
    -> L=2 2 :     0.004 sec done=       310 skipped=        90 prim-skipped=         0
    -> L=3 0 :     0.002 sec done=      1130 skipped=       150 prim-skipped=         0
    -> L=3 1 :     0.004 sec done=       550 skipped=        90 prim-skipped=         0
    -> L=3 2 :     0.003 sec done=       260 skipped=        60 prim-skipped=         0
    -> L=3 3 :     0.004 sec done=        90 skipped=        30 prim-skipped=         0
done (  0.0 sec)
Solving linear equations              ... done (  0.0 sec)
1st derivative integral Hessian terms ... done (  0.0 sec)
SHARK RIJ Hessian completed           ...   0.5 secdone   (      0.7 sec)
Exchange-correlation Hessian                     ... done   (      2.3 sec)
Dipole derivatives                               ... (center of mass:  1.145684,  0.000000  0.000000)done   (      0.1 sec)

-------
TIMINGS
-------

Total SCF Hessian time: 0 days 0 hours 0 min 9 sec 
                   F(y)            G[Q(x)]           CPSCF         Total
Table01         0.3  0.03         0.2  0.02         0.7  0.08         9.2 
Table01a        0.3  0.03,        0.2, 0.02,        0.7  0.08         9.2 
Table01b        0.3   2.9,        0.2,  1.9,        0.7   7.8         9.2 

Writing the Hessian file to the disk             ... done


Maximum memory used throughout the entire SCFHESS-calculation: 57.6 MB

-----------------------
VIBRATIONAL FREQUENCIES
-----------------------

Scaling factor for frequencies =  1.000000000  (already applied!)

   0:         0.00 cm**-1
   1:         0.00 cm**-1
   2:         0.00 cm**-1
   3:         0.00 cm**-1
   4:         0.00 cm**-1
   5:         0.00 cm**-1
   6:      1152.39 cm**-1
   7:      1224.16 cm**-1
   8:      1486.16 cm**-1
   9:      1761.56 cm**-1
  10:      2784.13 cm**-1
  11:      2828.43 cm**-1


------------
NORMAL MODES
------------

These modes are the Cartesian displacements weighted by the diagonal matrix
M(i,i)=1/sqrt(m[i]) where m[i] is the mass of the displaced atom
Thus, these vectors are normalized but *not* orthogonal

                  0          1          2          3          4          5    
      0       0.000000   0.000000   0.000000   0.000000   0.000000   0.000000
      1       0.000000   0.000000   0.000000   0.000000   0.000000   0.000000
      2       0.000000   0.000000   0.000000   0.000000   0.000000   0.000000
      3       0.000000   0.000000   0.000000   0.000000   0.000000   0.000000
      4       0.000000   0.000000   0.000000   0.000000   0.000000   0.000000
      5       0.000000   0.000000   0.000000   0.000000   0.000000   0.000000
      6       0.000000   0.000000   0.000000   0.000000   0.000000   0.000000
      7       0.000000   0.000000   0.000000   0.000000   0.000000   0.000000
      8       0.000000   0.000000   0.000000   0.000000   0.000000   0.000000
      9       0.000000   0.000000   0.000000   0.000000   0.000000   0.000000
     10       0.000000   0.000000   0.000000   0.000000   0.000000   0.000000
     11       0.000000   0.000000   0.000000   0.000000   0.000000   0.000000
                  6          7          8          9         10         11    
      0      -0.000000   0.000000   0.007467  -0.585707   0.055351  -0.000000
      1      -0.000000  -0.148122  -0.000000  -0.000000  -0.000000  -0.101619
      2       0.174184  -0.000000  -0.000000  -0.000000  -0.000000   0.000000
      3      -0.000000  -0.000000  -0.082731   0.410192   0.002643   0.000000
      4       0.000000   0.079771   0.000000   0.000000  -0.000000   0.000763
      5      -0.043111   0.000000   0.000000   0.000000   0.000000  -0.000000
      6       0.000000   0.650872   0.612064   0.234257  -0.350749  -0.368216
      7       0.000000   0.249427   0.349181   0.435279   0.612731   0.599377
      8      -0.695630   0.000000   0.000000   0.000000   0.000000  -0.000000
      9      -0.000000  -0.650872   0.612064   0.234257  -0.350749   0.368216
     10       0.000000   0.249427  -0.349181  -0.435279  -0.612731   0.599377
     11      -0.695630   0.000000   0.000000   0.000000   0.000000  -0.000000


-----------
IR SPECTRUM
-----------

 Mode   freq       eps      Int      T**2         TX        TY        TZ
       cm**-1   L/(mol*cm) km/mol    a.u.
----------------------------------------------------------------------------
  6:   1152.39   0.000740    3.74  0.000200  ( 0.000000 -0.000000 -0.014159)
  7:   1224.16   0.001829    9.24  0.000466  (-0.000000 -0.021591  0.000000)
  8:   1486.16   0.001608    8.13  0.000338  ( 0.018375 -0.000000  0.000000)
  9:   1761.56   0.020688  104.55  0.003665  (-0.060539 -0.000000 -0.000000)
 10:   2784.13   0.015185   76.74  0.001702  ( 0.041255 -0.000000  0.000000)
 11:   2828.43   0.031663  160.01  0.003493  (-0.000000 -0.059105 -0.000000)

* The epsilon (eps) is given for a Dirac delta lineshape.
** The dipole moment derivative (T) already includes vibrational overlap.

The first frequency considered to be a vibration is 6
The total number of vibrations considered is 6


--------------------------
THERMOCHEMISTRY AT 298.15K
--------------------------

Temperature         ... 298.15 K
Pressure            ... 1.00 atm
Total Mass          ... 30.03 AMU

Throughout the following assumptions are being made:
  (1) The electronic state is orbitally nondegenerate
  (2) There are no thermally accessible electronically excited states
  (3) Hindered rotations indicated by low frequency modes are not
      treated as such but are treated as vibrations and this may
      cause some error
  (4) All equations used are the standard statistical mechanics
      equations for an ideal gas
  (5) All vibrations are strictly harmonic

freq.    1152.39  E(vib)   ...       0.01 
freq.    1224.16  E(vib)   ...       0.01 
freq.    1486.16  E(vib)   ...       0.00 
freq.    1761.56  E(vib)   ...       0.00 
freq.    2784.13  E(vib)   ...       0.00 
freq.    2828.43  E(vib)   ...       0.00 

------------
INNER ENERGY
------------

The inner energy is: U= E(el) + E(ZPE) + E(vib) + E(rot) + E(trans)
    E(el)   - is the total energy from the electronic structure calculation
              = E(kin-el) + E(nuc-el) + E(el-el) + E(nuc-nuc)
    E(ZPE)  - the the zero temperature vibrational energy from the frequency calculation
    E(vib)  - the the finite temperature correction to E(ZPE) due to population
              of excited vibrational states
    E(rot)  - is the rotational thermal energy
    E(trans)- is the translational thermal energy

Summary of contributions to the inner energy U:
Electronic energy                ...   -114.55448857 Eh
Zero point energy                ...      0.02559938 Eh      16.06 kcal/mol
Thermal vibrational correction   ...      0.00004235 Eh       0.03 kcal/mol
Thermal rotational correction    ...      0.00141627 Eh       0.89 kcal/mol
Thermal translational correction ...      0.00141627 Eh       0.89 kcal/mol
-----------------------------------------------------------------------
Total thermal energy                   -114.52601430 Eh


Summary of corrections to the electronic energy:
(perhaps to be used in another calculation)
Total thermal correction                  0.00287489 Eh       1.80 kcal/mol
Non-thermal (ZPE) correction              0.02559938 Eh      16.06 kcal/mol
-----------------------------------------------------------------------
Total correction                          0.02847427 Eh      17.87 kcal/mol


--------
ENTHALPY
--------

The enthalpy is H = U + kB*T
                kB is Boltzmann's constant
Total free energy                 ...   -114.52601430 Eh 
Thermal Enthalpy correction       ...      0.00094421 Eh       0.59 kcal/mol
-----------------------------------------------------------------------
Total Enthalpy                    ...   -114.52507009 Eh

The point group will now be determined using a tolerance of 1.0000e-04.

WARNING (ORCA_SYM): The standard basis set is uninitialized at this point.
The point group is determined without considering basis set information.

Splitting atom subsets according to nuclear charge, mass and basis set.
Splitting atom subsets according to distance from the molecule's center.
Identifying relative distance patterns of the atoms.
Splitting atom subsets according to atoms' relative distance patterns.
Bring atoms of each subset into input order.
The molecule is planar.
There is at least one atom subset not centered around the molecule's center.
The molecule does not have a center of inversion.
Analyzing the first atom subset for its symmetry.
Testing point group C2v.
Success!
This point group has been found:    C2v
Largest non-degenerate subgroup:    C2v


Mass-centered symmetry-perfected Cartesians (point group C2v):

Atom          Symmetry-perfected Cartesians (x, y, z; au)
  0       0.000000000000    0.000000000000   -1.141498238815
  1       0.000000000000    0.000000000000    1.142339728966
  2       1.790887787939    0.000000000000   -2.264760901449
  3      -1.790887787939    0.000000000000   -2.264760901449


Note: Rotational entropy computed according to Herzberg 
Infrared and Raman Spectra, Chapter V,1, Van Nostrand Reinhold, 1945 
Point Group:  C2v, Symmetry Number:   2  
Rotational constants in cm-1:     9.310379     1.284436     1.128720 

Vibrational entropy computed according to the QRRHO of S. Grimme
Chem.Eur.J. 2012 18 9955


-------
ENTROPY
-------

The entropy contributions are T*S = T*(S(el)+S(vib)+S(rot)+S(trans))
     S(el)   - electronic entropy
     S(vib)  - vibrational entropy
     S(rot)  - rotational entropy
     S(trans)- translational entropy
The entropies will be listed as multiplied by the temperature to get
units of energy

Electronic entropy                ...      0.00000000 Eh      0.00 kcal/mol
Vibrational entropy               ...      0.00004950 Eh      0.03 kcal/mol
Rotational entropy                ...      0.00762772 Eh      4.79 kcal/mol
Translational entropy             ...      0.01716732 Eh     10.77 kcal/mol
-----------------------------------------------------------------------
Final entropy term                ...      0.02484454 Eh     15.59 kcal/mol

In case the symmetry of your molecule has not been determined correctly
or in case you have a reason to use a different symmetry number we print 
out the resulting rotational entropy values for sn=1,12 :
 --------------------------------------------------------
|  sn= 1 | S(rot)=       0.00828218 Eh      5.20 kcal/mol|
|  sn= 2 | S(rot)=       0.00762772 Eh      4.79 kcal/mol|
|  sn= 3 | S(rot)=       0.00724489 Eh      4.55 kcal/mol|
|  sn= 4 | S(rot)=       0.00697327 Eh      4.38 kcal/mol|
|  sn= 5 | S(rot)=       0.00676258 Eh      4.24 kcal/mol|
|  sn= 6 | S(rot)=       0.00659043 Eh      4.14 kcal/mol|
|  sn= 7 | S(rot)=       0.00644489 Eh      4.04 kcal/mol|
|  sn= 8 | S(rot)=       0.00631881 Eh      3.97 kcal/mol|
|  sn= 9 | S(rot)=       0.00620760 Eh      3.90 kcal/mol|
|  sn=10 | S(rot)=       0.00610812 Eh      3.83 kcal/mol|
|  sn=11 | S(rot)=       0.00601813 Eh      3.78 kcal/mol|
|  sn=12 | S(rot)=       0.00593598 Eh      3.72 kcal/mol|
 --------------------------------------------------------


-------------------
GIBBS FREE ENERGY
-------------------

The Gibbs free energy is G = H - T*S

Total enthalpy                    ...   -114.52507009 Eh 
Total entropy correction          ...     -0.02484454 Eh    -15.59 kcal/mol
-----------------------------------------------------------------------
Final Gibbs free energy         ...   -114.54991462 Eh

For completeness - the Gibbs free energy minus the electronic energy
G-E(el)                           ...      0.00457394 Eh      2.87 kcal/mol


Timings for individual modules:

Sum of individual times         ...       11.992 sec (=   0.200 min)
GTO integral calculation        ...        0.593 sec (=   0.010 min)   4.9 %
SCF iterations                  ...        1.997 sec (=   0.033 min)  16.6 %
Analytical frequency calculation...        9.403 sec (=   0.157 min)  78.4 %
                             ****ORCA TERMINATED NORMALLY****
TOTAL RUN TIME: 0 days 0 hours 0 minutes 12 seconds 383 msec
